QMMM reactant CHA#2 frame 52192
 55680
  17.0538540  40.2705193  38.0265694  16.1320133  39.9402924  38.2740860
  17.6455746  40.1144447  38.8300667  17.0136776  41.2276726  37.7066536
  17.4937897  39.3460045  36.9163399  16.7038670  39.3160439  36.1658554
  18.8822803  39.6904221  36.3139954  18.8090706  40.5886002  35.7007942
  19.6525116  39.7542496  37.0826149  19.3431530  38.5576248  35.3679199
  19.4001789  37.6115112  35.9061775  18.6313896  38.3678780  34.5644989
  21.0442009  38.9409752  34.7272224  20.4422989  39.7879410  33.2194939
  21.1701355  40.4089432  32.6972809  19.9626961  39.1060944  32.5172348
  19.6455498  40.4709091  33.5141945  17.4577732  37.9533005  37.5073967
  18.0787277  37.6432495  38.4981766  16.6818047  37.0475349  36.9371338
  16.1980343  37.1940193  36.0627174  16.3698559  35.7690659  37.5384026
  16.3743572  35.9029350  38.6201439  14.9809113  35.2908897  36.8345985
  14.3935385  36.1921005  36.6587791  15.2405548  34.8383980  35.8775520
  14.1505518  34.3691063  37.7618561  13.8504820  34.9828911  38.6111679
  14.7510843  33.5232201  38.0964432  12.6665049  33.8312454  36.9848557
  11.8601704  33.1734047  38.4889679  12.3817835  32.2748795  38.8186340
  10.8935776  32.9608002  38.0322418  11.6996984  33.9817314  39.2023888
  17.3899269  34.6583290  37.3560982  17.9448128  34.5345726  36.2830200
  17.6027660  33.7620354  38.3328094  17.2267113  33.7965660  39.2695541
  18.6398506  32.6889305  38.1452789  19.5257587  33.0094032  37.5970421
  19.2328644  32.3850975  39.5471077  18.3967419  32.4495506  40.2434158
  19.8195457  30.9664459  39.6160545  20.5708752  30.8698959  38.8322945
  20.1775303  30.8812542  40.6420631  18.9650249  30.3233013  39.4056778
  20.4432068  33.3158531  39.8945312  20.8660412  33.0602570  40.8661194
  21.2547073  33.3057175  39.1668892  20.0215416  34.8105316  40.1585541
  20.8866863  35.3607750  40.5285110  19.5514259  35.1808510  39.2475357
  19.2502518  34.7797127  40.9281387  17.9464188  31.5438786  37.4295197
  16.9251366  31.0662880  37.9684067  18.4960823  30.9891167  36.3647423
  19.4080677  31.3411884  36.1109123  18.0956116  29.6832218  35.6443558
  17.2282124  29.2680244  36.1575203  17.6326866  29.9993610  34.2081795
  18.3108406  30.7013874  33.7230301  17.7055759  29.0669537  33.6483498
  16.1924744  30.4914017  34.1895332  15.6530905  30.2368546  33.2771873
  15.5137320  30.0430050  34.9150314  16.0022411  32.0107765  34.3740387
  16.1487408  32.1397820  35.4464188  16.7812443  32.5473976  33.8324738
  14.6545448  32.4618835  34.1457710  13.8629284  31.9228573  34.4665489
  14.1907692  33.5529099  33.5620270  14.9652615  34.5304451  33.2724800
  14.6047726  35.3350754  32.7798119  15.9540882  34.5124664  33.4774170
  12.9507408  33.6429901  33.2641373  12.3860254  32.8260078  33.0804405
  12.8188763  34.3895607  32.5967979  19.1940403  28.5665245  35.6771049
  20.3701115  28.8786907  35.8933487  18.7832470  27.3599052  35.3990440
  17.8531399  27.2843952  35.0126534  19.5704556  26.1392345  35.3140526
  20.4467163  26.1444855  35.9623108  18.8889484  25.3182144  35.5367088
  19.9997654  25.8168354  33.9101257  19.1576099  25.7643509  33.0328102
  21.2189236  25.3173866  33.7072105  21.8041840  25.2709103  34.5290451
  21.8037128  25.1047287  32.4103851  20.9806080  25.0793915  31.6962719
  22.7923965  26.3085556  32.0150375  23.6417179  26.2123814  32.6914291
  23.2273235  26.0543861  30.5868683  22.3905869  26.1806297  29.8998241
  24.1607952  26.5771561  30.3784351  23.5361080  25.0295391  30.3808613
  22.1147594  27.6852417  32.2164917  21.1176682  27.6626453  31.7767162
  22.0476665  27.8602009  33.2902641  22.9180527  28.8501415  31.5608807
  22.6851921  28.8238487  30.4963684  22.6932793  29.8441429  31.9475861
  23.9779263  28.6256485  31.6808090  22.5698738  23.7362328  32.3455276
  23.3661652  23.4448891  33.2601089  22.3552017  22.9544983  31.2513809
  21.6759167  23.2655869  30.5717525  22.9074802  21.5533314  31.2005367
  23.5999718  21.4499588  32.0359268  21.7043495  20.6112671  31.4496975
  21.0998592  20.6207848  30.5427227  22.0175934  19.6081295  31.7390022
  20.6657124  21.0713425  32.5803604  21.2219467  21.6519375  33.3163071
  19.9343529  21.8285389  32.2977562  20.0290375  19.8154163  33.1866493
  20.8150806  19.2048912  33.6310577  19.4705486  20.1186352  34.0722313
  19.2397957  19.0437889  32.2742348  18.4960098  19.5754700  31.8450527
  19.5772038  17.8733692  31.7728291  20.7133522  17.2721596  31.9104328
  21.4343624  17.6126671  32.5303535  20.8846893  16.5068245  31.2740307
  18.6859932  17.1640129  31.1264286  19.1189137  16.4337349  30.5792751
  17.7851181  17.6120377  31.0381069  23.7118893  21.2569904  29.9007053
  23.5276318  21.9198856  28.8997650  24.3801174  20.0898457  29.9811535
  24.4092197  19.5897217  30.8581524  24.8139191  19.3829613  28.7115803
  23.9569550  19.0727577  28.1136799  25.4009781  20.0592346  28.0901966
  25.7189674  18.1690464  28.9227848  25.9422455  17.7786636  30.0521069
  26.2613678  17.6137028  27.8379269  25.8969784  17.9145947  26.9452991
  26.7781086  16.3064938  27.8457146  27.3218708  16.0987129  28.7672634
  25.4482784  15.5382833  27.8860168  24.8901997  15.6318684  28.8176174
  24.8315735  15.7611723  27.0153275  25.7891693  14.5052128  27.8177567
  27.6591816  16.0110474  26.6191387  27.3119373  16.3931923  25.5190029
  28.6850166  15.2970943  26.8716164  28.9324245  15.0543823  27.8202896
  29.6536198  14.7732840  25.8181667  29.1355133  14.6348209  24.8692245
  30.6772156  15.8014517  25.5086117  30.1214733  16.7309837  25.3852386
  31.8335419  15.7890844  26.4706287  31.4764633  15.8628378  27.4978352
  32.4540787  14.9324150  26.2076473  32.4114952  16.6972485  26.2994270
  31.1323948  15.5620689  24.1983452  31.6524258  16.3381386  23.9772453
  30.2096786  13.3746052  26.2117615  29.8661327  12.7138710  27.2445011
  31.0193615  12.8435698  25.3264046  31.2962704  13.4436541  24.5626507
  31.4538708  11.4777422  25.4455185  31.2911091  11.1665764  26.4774017
  30.7077007  10.5109797  24.5898037  31.0957909   9.5245562  24.8436813
  29.1817455  10.5477238  24.9724846  28.7120628   9.6382189  24.5979233
  28.9304218  10.4184246  26.0252037  28.7271595  11.3317146  24.3668289
  30.8092976  10.7273779  23.2266502  31.6413898  10.3089018  22.9940586
  32.9191895  11.3156786  25.1090794  33.5950317  12.2560825  24.6474514
  33.5835037  10.1852160  25.3719788  33.0535278   9.5146894  25.9101410
  35.0158081   9.8131504  25.3481197  35.5009308  10.3882198  24.5594177
  35.7239151   9.9760132  26.6620083  36.7817688   9.9167261  26.4060173
  35.5798912  11.4245434  27.2119427  36.1808510  11.5426483  28.1136074
  35.9676476  12.1356974  26.4825554  34.5324707  11.5358553  27.4923439
  35.3188820   8.9755630  27.8117104  34.3011703   9.0328159  28.1978188
  35.5285187   7.9715509  27.4427776  35.9257889   9.2350492  28.6791439
  35.1597977   8.3107195  24.8634567  34.2642059   7.4773245  25.1308556
  36.2157631   8.0435810  24.0868778  36.8935318   8.7921495  24.0674934
  36.5350075   6.8135166  23.4250240  35.6101151   6.2378654  23.3888664
  37.1076088   7.0410271  21.9981041  37.9939919   7.6645737  22.1148033
  37.4803925   6.1127090  21.5652542  36.1250114   7.4535270  20.9174881
  35.9070358   8.5187283  20.9945221  36.7047539   7.2140889  20.0260448
  34.7984276   6.6920428  20.9034576  33.7699280   7.2265224  21.3574638
  34.7622757   5.5492988  20.4112682  37.4686775   5.9123116  24.2603130
  37.5005074   4.7397795  24.0545769  38.1534081   6.4726524  25.2820110
  37.9701157   7.4549670  25.4288712  39.1644821   5.8959227  26.1350021
  38.9440994   4.8386483  26.2823219  40.5675278   6.0854564  25.5267715
  40.5271072   5.9054189  24.4525013  40.8573685   7.1352654  25.4821186
  41.6309204   5.2609568  26.2500801  41.8010521   5.6962419  27.2348061
  41.2037163   4.2600460  26.3115177  42.9081421   5.2308888  25.4040699
  43.4614105   4.3788133  25.7989902  42.6365318   4.8384428  24.4241142
  43.8399811   6.4123230  25.3996944  43.4639473   7.2041183  24.8979397
  45.1199226   6.5193563  25.7024517  45.7461166   5.6094537  26.4644032
  46.6451988   5.9697275  26.7506866  45.2936668   4.7786818  26.8182449
  45.7849655   7.5394945  25.2649155  46.6856995   7.6584454  25.7060947
  45.4082718   8.3616676  24.8152161  39.0491257   6.4729142  27.5371685
  38.7792892   7.6250014  27.7269039  39.1858177   5.6840625  28.6201668
  39.2169876   4.6871276  28.4612656  39.0742569   6.1063218  30.0816593
  38.2876511   6.8535881  30.1862679  38.5452766   4.8484988  30.8654480
  37.5623512   4.5964160  30.4674358  39.2288933   4.0055442  30.7644939
  38.4257774   5.0612226  32.3477020  38.1436386   6.2222791  32.7700500
  38.4652634   4.1286159  33.1650696  40.4636993   6.6632118  30.5719280
  41.3071404   5.8987803  31.1058712  40.6569710   7.9141083  30.2802429
  39.8566628   8.4475670  29.9719830  41.9771805   8.7200747  30.3713970
  42.5125580   8.4299946  31.2754555  42.9154587   8.3630781  29.2765903
  43.0655975   7.2838488  29.3053589  42.4981079   8.7938890  27.8913651
  42.1786194   9.8346701  27.8384380  43.3737946   8.6974945  27.2495041
  41.5623169   8.3246164  27.5877514  44.1548042   8.9935055  29.5548458
  44.7907333   8.3291883  29.8303032  41.7518311  10.2673826  30.4030380
  40.7843933  10.7321262  29.7711334  42.5470314  11.0676394  31.1304893
  43.2821732  10.6378374  31.6735706  42.5023727  12.4958429  31.1563988
  41.5109367  12.8303709  31.4617672  43.4711647  13.0817251  32.2572594
  42.9333725  13.9956751  32.5094070  43.4361229  12.5150766  33.1877365
  44.8806648  13.4461546  31.8116741  44.8182106  14.1914740  31.0187683
  45.3382301  13.9255848  32.6770515  45.6988220  12.3167124  31.2886715
  46.2122040  12.3937540  30.1424122  45.9005203  11.2846565  31.9089108
  42.7247849  13.0357218  29.7141418  42.2735100  14.1209440  29.4809856
  43.4819450  12.3842087  28.8341656  43.9262199  11.5350714  29.1530476
  43.7518806  12.8539858  27.4603271  44.4294357  13.7000647  27.5750942
  44.4495277  11.7695961  26.5349045  45.4862099  11.5758743  26.8103333
  43.9097176  10.8275414  26.4387703  44.6534805  12.2175827  25.1326027
  43.7153282  12.2039347  24.5778198  45.0458946  13.2241316  25.2774048
  45.7509575  11.4274216  24.4292068  45.5633392  10.2214165  24.2886219
  46.7433014  12.0133991  23.9445381  42.4952698  13.2783403  26.7768955
  42.3438148  14.4733610  26.2936993  41.4186249  12.4543438  26.8487053
  41.5607109  11.5994377  27.3674030  40.0519447  12.7479868  26.4577713
  40.0536957  13.4480352  25.6222878  39.2092514  11.5231352  25.9562817
  38.9187927  10.9585800  26.8422890  38.2789497  11.8877697  25.5207615
  39.9493675  10.5940523  24.9037457  40.8592873  10.0823946  25.2173595
  39.3001366   9.7550526  24.6533890  40.2860222  11.1944838  23.4777088
  39.5504341  12.0574331  23.0014534  41.2939568  10.8229456  22.8659630
  39.2930984  13.4613895  27.6105900  38.6482658  14.4588757  27.2775249
  39.1930237  12.8557386  28.8444004  39.8004532  12.0749378  29.0480614
  38.0914688  13.2132559  29.8433914  37.1140137  13.0886908  29.3773880
  38.1562691  12.2801933  31.1210079  39.1792717  12.1812487  31.4840107
  37.3939857  12.9550838  32.2698402  36.3795433  13.1457710  31.9196224
  37.3443680  12.3667822  33.1861076  37.8614426  13.9047136  32.5302086
  37.5183372  10.8899593  30.7931957  36.4516106  11.0687084  30.9282742
  37.8238029  10.5536356  29.8024006  38.0409241   9.7571707  31.7720871
  37.6566238   9.7827139  32.7917709  37.6494904   8.8745880  31.2661934
  39.1293831   9.7455664  31.8288822  38.0731277  14.7359600  30.1677055
  37.0157127  15.3326588  30.1084538  39.2221909  15.4482527  30.3042297
  40.0765610  14.9169607  30.2154293  39.3338432  16.9090996  30.4564228
  38.5146103  17.2440567  31.0926323  40.7412758  17.3089352  30.9267826
  41.4403763  17.1824436  30.1001282  40.7714043  18.3710880  31.1697330
  41.3207474  16.4630375  32.0965919  41.4946442  15.4687757  31.6851273
  42.6434555  17.0093117  32.5420799  43.3628883  16.9042778  31.7299938
  42.6519737  18.0679493  32.8015327  42.9686890  16.3858700  33.3749275
  40.3530426  16.3991756  33.2766876  40.8945541  16.2599030  34.2123566
  39.8417740  17.3567371  33.3755913  39.7184944  15.5363064  33.0744362
  39.0468903  17.5651245  29.0653229  38.0549774  18.2039337  29.0442734
  39.7936440  17.2169456  28.0193768  40.5641212  16.5754509  28.1416664
  39.6600113  17.9207649  26.7319946  40.1362495  18.8986378  26.8032246
  40.4617157  17.1619244  25.6546154  41.4898796  17.0585785  26.0014496
  40.0189209  16.1667366  25.6141605  40.5683136  17.8388481  24.2975502
  40.6863518  18.9056969  24.4872799  41.5131416  17.4655647  23.9025021
  39.3933907  17.4828262  23.3830070  38.8743286  16.3702984  23.1955872
  38.9938354  18.4675255  22.5902290  39.4336929  19.3757172  22.6328487
  38.2539864  18.2679291  21.9322910  38.1781693  18.0492172  26.2569160
  37.7272072  19.0968876  25.8514214  37.4475327  16.9370804  26.4717827
  37.9119453  16.1191006  26.8396587  36.0674973  16.8409786  26.1132221
  35.8213997  17.3672371  25.1909485  35.6191635  15.4201384  25.9948521
  35.9387894  14.8637581  26.8759766  34.5326080  15.4901047  26.0458679
  36.1913948  14.7324505  24.7145367  37.2736359  14.6051455  24.7399635
  35.8822289  13.6873589  24.6969452  35.9280319  15.3837633  23.3400955
  34.8556557  15.3020411  23.1627960  36.3037300  16.4062233  23.3791771
  36.5989075  14.8681440  22.0858479  37.6878128  14.8836308  22.1321869
  36.3402901  13.8152103  21.9738274  36.2457924  15.5599880  20.8122292
  36.7399368  16.4407387  20.7981281  36.5086937  14.9674082  20.0377388
  35.2408829  15.5488691  20.7115765  35.0899658  17.6443043  26.9914608
  34.2114716  18.2945843  26.4619198  35.4136620  17.6502304  28.3013325
  36.1046257  16.9954643  28.6388950  34.7276955  18.5508556  29.2464867
  33.6504898  18.3899994  29.2894993  35.1554337  18.1321583  30.6636562
  36.2146454  18.2322941  30.9006271  34.3845558  18.8820324  31.7426243
  34.7988548  19.8900204  31.7222462  33.3568954  18.9331360  31.3828907
  34.5043411  18.3218193  32.6699409  34.8055458  16.7963696  30.8807583
  35.5573082  16.2354813  30.6761703  34.9519424  20.0354424  28.9846916
  33.9836540  20.8033829  28.8875828  36.1757240  20.4355354  28.7325573
  36.8335915  19.6696358  28.7059917  36.4542542  21.8100929  28.2175999
  36.1424294  22.5290451  28.9752102  37.9444427  21.9913483  28.1015911
  38.4669037  21.8746681  29.0510769  38.2906685  21.3950214  27.2574196
  38.4110146  23.4327583  27.7986698  37.9383392  23.7954769  26.8859177
  38.2565231  24.1227074  28.6282501  39.9351768  23.3681850  27.5704002
  40.4060631  23.0386047  28.4965439  40.2743149  22.7215900  26.7610779
  40.5068321  24.7799053  27.3599167  40.0182304  25.3772945  28.1296577
  41.5883446  24.8415203  27.4808788  40.2042809  25.3626156  26.0369473
  39.2088890  25.5334473  26.0475140  40.4949722  26.3152504  25.8693428
  40.5009308  24.8277664  25.2331848  35.7890816  22.1666393  26.7998905
  35.0939713  23.1235409  26.6962471  35.9608002  21.2644157  25.8119888
  36.5400085  20.4609165  26.0094872  35.3096695  21.4107075  24.4931965
  35.6516724  22.3096752  23.9803696  35.6935654  20.2359753  23.6507702
  36.7718658  20.2511215  23.4922123  35.5591011  19.3049812  24.2014732
  34.8968430  20.1346989  22.2821465  33.9549599  19.5986214  22.3986759
  34.6006813  21.1679192  22.1009026  35.7012253  19.5892372  21.0672073
  36.3325958  18.5643864  21.1895676  35.8133698  20.1439438  19.9562569
  36.4261360  19.6933765  19.2917194  35.2155304  20.9270039  19.7337685
  33.8014526  21.5288467  24.6035061  33.1965027  22.4508228  24.0594997
  33.1816292  20.7602749  25.5447025  33.6222878  20.0624390  26.1268902
  31.7428246  20.8961105  25.8819408  31.2260609  20.8185406  24.9253654
  31.3796844  19.6097965  26.6890965  31.4447041  18.8247852  25.9356842
  32.1184883  19.3314285  27.4406166  30.0100365  19.6730518  27.3784351
  30.0004196  20.6091576  27.9367485  28.8191833  19.9453621  26.4615498
  27.9020557  20.0875645  27.0331783  29.0178699  20.8880672  25.9517174
  28.6386013  19.2696400  25.6255608  29.5944405  18.4627590  28.1585541
  29.3867588  17.6200161  27.4992008  30.3869343  18.1472054  28.8371410
  28.6716385  18.6547184  28.7059937  31.2691212  22.2154160  26.6469898
  30.3665333  22.8927059  26.1866188  31.8248253  22.4842072  27.7932396
  32.6130295  21.9228210  28.0825119  31.4936619  23.6904697  28.5511913
  30.4444523  23.5200253  28.7924557  32.1809387  23.8269558  29.9184113
  32.0959396  22.8839912  30.4584980  33.2346153  23.8238335  29.6393604
  31.8380642  24.9800053  30.7922878  32.0370674  25.9411221  30.3182087
  30.3656979  24.9581528  31.1623802  30.0152073  23.9669819  31.4502106
  30.2341099  25.5808659  32.0472603  29.7471447  25.2903023  30.3286133
  32.6881256  24.7913647  32.0734711  32.2604408  23.9910583  32.6773643
  33.7302742  24.5187206  31.9070530  32.7258987  25.7602787  32.5713463
  31.6752567  25.0220165  27.6948929  31.0150127  26.0562325  27.7435055
  32.6510315  25.0291309  26.8006268  33.3653297  24.3151665  26.8120117
  32.9574127  26.2040672  25.9813690  33.0505028  27.0042477  26.7156334
  34.3087997  26.0791607  25.2726116  34.3764763  25.1080761  24.7821865
  34.3737640  26.8359394  24.4908409  35.5516129  26.3363380  26.1970329
  35.2327232  27.0456333  26.9607792  35.7160454  25.3812618  26.6959229
  36.7364769  26.9264565  25.5174961  37.7340240  26.1580524  25.3766747
  36.6553841  28.0794163  25.0470810  31.8612633  26.4002953  24.9058189
  31.6291142  27.5578251  24.6851959  31.2591419  25.3618145  24.3448372
  31.5662289  24.4292049  24.5815563  30.0928669  25.4244576  23.5460453
  30.2844791  26.1200294  22.7289963  29.7362595  24.0326176  22.8812733
  30.6253834  23.7685394  22.3087139  29.5768223  23.2764969  23.6500130
  28.6113281  24.1880684  21.8363037  28.1105461  23.2864552  21.4835873
  27.8616409  24.8252068  22.3054867  29.1353378  24.9698639  20.5731354
  29.5509148  25.9384995  20.8508892  30.0009632  24.4517822  20.1603584
  28.0894547  25.1995983  19.4737511  27.5604229  24.2883091  19.1948528
  27.3602791  25.9014606  19.8784657  28.6857166  25.7128162  18.2838364
  29.0012932  24.9502048  17.7016563  28.0279236  26.1880722  17.6825542
  29.3698807  26.4183846  18.5166302  28.8816814  25.8600292  24.4222050
  28.2168140  26.7323589  23.9306240  28.7642822  25.4017944  25.6068497
  29.5070610  24.8301888  25.9832077  27.6875286  25.8937454  26.5367756
  26.7117786  25.7247562  26.0813007  27.7420311  25.1348782  27.8907719
  28.7642117  25.1377277  28.2692394  26.8414021  25.7891293  28.9617481
  25.8071175  25.7059460  28.6279316  27.0792656  25.3402901  29.9261475
  27.1213131  26.8415432  29.0082989  27.3390350  23.6294613  27.7128696
  26.2894535  23.6059875  27.4197369  27.9463921  23.1263218  26.9604969
  27.6141014  22.8112011  28.9385471  27.5310802  21.7990894  28.5425262
  28.5836353  22.9844990  29.4055328  26.9133701  23.1258202  29.7119102
  27.8074875  27.4112701  26.6661587  26.8049126  28.0779133  26.3980961
  28.9708195  27.9373188  27.0111065  29.7567978  27.3113899  27.1138172
  29.2217312  29.3728237  27.1918373  28.5254135  29.8288326  27.8956108
  30.6725578  29.4550266  27.7833042  31.2810326  28.8284626  27.1311722
  31.1491890  30.8956757  27.8309708  32.2209663  30.8504620  28.0242329
  31.1582184  31.4261990  26.8788357  30.7536125  31.5528774  28.6053772
  30.8173122  28.9022598  29.2490273  30.2635918  29.5273952  29.9495277
  30.3904285  27.9024353  29.3279095  32.2280273  28.5811615  29.7362385
  32.6077232  27.6974678  29.2233887  32.9290619  29.4139500  29.6804276
  32.2337990  28.3510017  30.8016472  29.1312294  30.1395130  25.8675728
  28.9027042  31.3257771  25.7848797  29.4870167  29.5223045  24.7586784
  29.7920017  28.5666676  24.8763351  29.4934521  30.0987682  23.3807545
  29.9702072  31.0773449  23.4372444  30.1402893  29.1521988  22.3089237
  31.1847839  28.9324951  22.5299721  29.7289410  28.1483707  22.4148979
  29.9560471  29.5482635  20.8412704  28.8832664  29.6329479  20.6678600
  30.3705292  30.5370121  20.6445885  30.7585144  28.7031822  19.8885574
  30.2267361  28.2101727  18.9046822  31.9390182  28.4719181  20.1896820
  28.0815964  30.4495773  22.9829311  27.8749104  31.4784794  22.3504753
  27.1876850  29.4690876  23.2078171  27.5919685  28.6671276  23.6698952
  25.7296200  29.5369225  22.9545631  25.5784435  29.9246426  21.9471283
  25.2116261  28.0515423  22.9493847  25.4475021  27.5172272  23.8696938
  24.1248684  28.0399990  22.8661633  25.6351357  27.2241535  21.7463322
  26.7154961  27.1984863  21.6039810  25.2035904  26.2453995  21.9558716
  24.9871464  27.5998936  20.3837662  24.2428570  28.5179806  20.1707153
  25.3103218  26.8257275  19.4473495  24.9724159  30.4141254  23.9195251
  24.0905914  31.1905270  23.4646664  25.3757458  30.3419075  25.1830788
  26.0499973  29.6301155  25.4256439  24.7182522  31.2053471  26.2052784
  23.6593456  31.3405228  25.9849510  24.8334789  30.4438343  27.5488377
  25.8149014  30.0748730  27.8467884  24.6773109  31.2151165  28.3030510
  23.7339478  29.3865662  27.6766052  22.6623898  29.6802483  28.2457047
  23.9603615  28.1240940  27.2750092  23.2796345  27.3780079  27.2668324
  24.9074821  27.8692074  27.0339775  25.3531437  32.6374435  26.4273453
  24.7281666  33.5758553  26.9665108  26.6605644  32.7948341  26.0711174
  27.2357922  32.0447807  25.7152596  27.3938541  34.0577660  26.2841969
  28.3851013  33.8738289  25.8698387  26.8704758  35.2739105  25.4719715
  26.1328621  35.7201233  26.1389980  27.7401142  35.9153175  25.3290424
  26.2908421  34.9035339  24.1544342  26.9377995  34.4916306  23.0458870
  27.9345627  34.5481453  22.8930206  26.0422516  34.0218239  22.1435089
  26.2794476  33.3417244  21.3387699  24.8301144  34.1181755  22.6698380
  23.9928303  33.7446365  22.2461338  24.9828148  34.7024384  23.9341640
  24.1200466  34.8092651  24.5749588  27.5443878  34.3380966  27.8183765
  27.4386616  35.4855080  28.3287773  27.7974052  33.2621994  28.5933380
  27.9408112  32.3605461  28.1614017  27.8762627  33.3559456  30.0343876
  27.0972633  33.9600945  30.4994278  27.7808151  31.9900589  30.7247868
  28.7121773  31.4973392  30.4456921  27.6876011  31.8507500  32.2989998
  27.0171146  32.6089935  32.7034912  27.3271790  30.8590679  32.5724335
  28.6239662  32.0745392  32.8101158  26.7596378  31.2299061  30.1838589
  25.8887768  31.5951843  30.3564053  29.2451248  33.9451294  30.4321461
  30.2469120  33.5953751  29.8803215  29.4716587  34.7122231  31.5564995
  28.7269306  34.8718719  32.2198181  30.6793480  35.2250252  32.1363258
  31.5364628  34.9539948  31.5198860  30.7228661  36.7527885  32.2263985
  31.7970886  36.8739967  32.3658867  30.4186668  37.1402702  31.2540703
  29.9112263  37.5211487  33.3112755  28.8528614  37.2705956  33.3832932
  30.3098335  37.2651253  34.2929420  30.1424694  39.0357819  33.1843147
  31.2026558  39.2798157  33.2517967  29.6320763  39.4043655  32.2945137
  29.4319401  39.6195717  34.4235382  28.3929672  39.2902107  34.4360657
  29.9109402  39.2321892  35.3227539  29.4335613  41.0655441  34.2450142
  28.8887959  41.3939133  33.4604683  28.8827000  41.5018845  34.9704514
  30.3923168  41.3828430  34.2306175  30.6992836  34.6307564  33.5417213
  29.6122971  34.6573334  34.2362137  31.8899403  34.2134857  33.9583435
  33.2022247  34.2112198  33.2372475  33.3523178  35.2267189  32.8707237
  33.1845856  33.5646858  32.3598747  34.3457489  33.9438057  34.2150383
  34.7458153  34.9079437  34.5288696  35.0863419  33.2409782  33.8333931
  33.6109238  33.2033310  35.3103218  33.9566040  33.5160828  36.2956085
  33.6879158  32.1397781  35.0844383  32.1137390  33.4808464  35.2578239
  31.5974216  32.5209045  35.2637634  31.5313797  34.1370506  36.5270615
  31.1425552  33.3931732  37.4787712  31.4534893  35.4575462  36.5297318
  31.8641739  36.0294495  35.8055992  30.8263950  36.2193489  37.6794853
  31.2354584  35.9375381  38.6497192  31.0349121  37.7623558  37.4659767
  31.1148262  38.0750122  36.4248428  30.1893597  38.2909889  37.9060745
  32.3897057  38.1420593  38.1138420  32.2463989  38.1662865  39.1941109
  33.1706429  37.5008011  37.7051506  32.6684914  39.5792427  37.6425133
  32.3231506  40.5467758  38.3392982  33.1303864  39.6746902  36.5036278
  29.3331642  35.9516754  37.9627151  28.8650074  36.0358963  39.0841446
  28.5523720  35.7009163  36.9427376  28.9572392  35.5774155  36.0257149
  27.0817146  35.3906403  37.1124039  26.6767178  36.1473923  37.7842789
  26.4468060  35.6337128  35.7205048  27.0127716  35.1035309  34.9545479
  25.3914471  35.3618965  35.7413330  26.3956413  37.1166229  35.3240738
  26.7914333  37.9947205  36.1651649  25.8271675  37.4614868  34.3004265
  26.8175507  33.9917526  37.6888428  25.6570415  33.7933121  37.9071579
  27.8391151  33.0576744  37.6706429  28.7738667  33.3639755  37.4414749
  27.5194111  31.6495056  37.9808693  26.4779243  31.4059353  37.7709236
  28.3493633  30.6118832  37.2925720  29.4169903  30.7007942  37.4934845
  27.8721123  29.1559792  37.5106125  28.4180126  28.4874992  36.8448524
  27.9236145  28.9226189  38.5740929  26.8472309  29.0944290  37.1446457
  28.3498173  30.8857365  35.7975044  27.4185562  30.6142445  35.3003731
  28.7530060  31.8290520  35.4291382  29.0591030  30.1759224  35.3718567
  27.4823570  31.4698982  39.4922295  28.4240818  31.8343277  40.1592827
  26.3520870  30.8133678  39.9679489  25.6815338  30.5361195  39.2653885
  26.1002560  30.6340599  41.4043159  26.3470173  31.5658817  41.9131584
  24.5936489  30.3560047  41.5724869  24.4513569  29.4162216  41.0389519
  24.1783581  29.9229031  42.9608727  24.1428509  30.7503395  43.6695251
  23.2239170  29.3964615  42.9620934  24.8914165  29.2159710  43.3850174
  23.6793022  31.4755535  40.9098701  24.0369682  32.4779663  41.1451263
  23.8060322  31.4061031  39.8294907  22.6307621  31.3708649  41.1886063
  26.8881035  29.4106483  41.8643570  27.4883575  29.4612274  42.9747429
  26.7263851  28.3172417  41.1266632  26.3192654  28.3929443  40.2054596
  27.3990479  27.0113392  41.2437592  28.4606857  27.2535400  41.2924385
  26.8342495  26.3039894  42.4760895  27.3391647  25.3391724  42.5239372
  27.1685333  26.8655033  43.3484764  25.2990131  26.1414661  42.6979179
  25.0145760  26.4423466  43.7062187  24.7875252  26.8352509  42.0307274
  24.8583565  24.7705631  42.4535561  24.8170948  23.9827557  43.3673096
  24.4343185  24.4397068  41.2103958  24.1891212  23.4761734  41.0326805
  24.1428223  25.1593323  40.5644302  27.2763367  26.0351868  40.1291161
  26.3987904  26.2365170  39.2617111  28.0324688  24.9442863  40.1804504
  28.7264252  24.8259201  40.9046860  28.1986790  23.9460220  39.1601334
  27.2765026  23.8715725  38.5838089  29.2973385  24.4518871  38.2370262
  29.0388660  25.4535885  37.8936806  30.2288380  24.3923073  38.7999268
  29.5767708  23.4856033  37.0883293  30.0913162  22.6318264  37.5292473
  28.7024097  23.0219879  36.6315346  30.6244755  24.2149544  35.7695084
  29.5856686  25.5446014  35.0731049  29.1750431  26.2159729  35.8272591
  30.0589066  26.1249065  34.2810249  28.8351460  24.9637642  34.5369682
  28.4146557  22.5742245  39.6848335  28.9555836  22.4537945  40.7588425
  27.9455376  21.5743599  38.9120140  27.4963188  21.8462944  38.0492554
  28.1030769  20.1624260  39.1853752  28.9166985  19.9111805  39.8658142
  26.8371105  19.5596523  39.8317604  26.0296955  19.5949345  39.1003647
  26.8959904  18.4713421  39.8464317  26.4119091  20.0974140  41.2239914
  26.4335556  21.1871891  41.2283516  25.0448189  19.4455910  41.7048225
  24.2389221  19.7815342  41.0523033  25.1305923  18.3589706  41.7043037
  24.8305569  19.8691368  42.6860466  27.4484119  19.6772919  42.3122330
  26.9961815  19.9600296  43.2628365  27.5420704  18.5915318  42.3335419
  28.4050827  20.1711044  42.1418457  28.5205517  19.4571362  37.9547234
  28.1174908  19.9125404  36.8339844  29.3883400  18.4735317  38.0246773
  29.7548351  18.2601738  38.9413338  29.7809258  17.5599365  36.9845657
  29.0647030  17.7224998  36.1791458  31.1790371  17.7998562  36.5472221
  31.8439770  17.9542694  37.3969917  31.6855087  16.9556179  36.0794067
  31.3914261  18.9493980  35.6092033  30.6893234  19.0038700  34.7772255
  31.4326057  20.3504257  36.2113914  31.5503178  21.0955658  35.4246140
  30.6087036  20.6594849  36.8546371  32.2558250  20.3466206  36.9258041
  32.7530327  18.8335323  34.8934097  32.8318481  17.9374123  34.2778931
  32.8618584  19.5881062  34.1143875  33.5987968  18.8926220  35.5784569
  29.6042786  16.0328617  37.2929268  29.6828651  15.6074724  38.4497871
  29.5446911  15.1932945  36.2822723  29.3641148  15.5967970  35.3741570
  29.5351715  13.7130098  36.3603668  30.1572437  13.5390215  37.2383537
  28.1290703  13.2924566  36.6369057  27.7432938  14.0210056  37.3499947
  27.4397449  13.2818699  35.7926216  28.2287979  12.0189486  37.2056580
  28.6228180  11.9898872  38.0805893  30.1550350  12.9722300  35.1985550
  30.3613319  13.5531893  34.1142883  30.4474564  11.6708269  35.4210052
  30.1976910  11.2078285  36.2831841  30.8725319  10.7572241  34.3949890
  30.4007893  11.1520176  33.4951553  32.4216957  10.6585741  34.3049965
  32.8284302   9.9593582  35.0355873  32.6633987  10.1670103  33.3626366
  32.9699173  11.5837421  34.4828110  30.3188305   9.3100471  34.7680168
  30.2757626   8.9716311  35.9300117  29.9394741   8.6190462  33.7334709
  30.0421295   8.9820080  32.7965508  29.4261436   7.2405863  33.8837700
  28.6041222   7.3287702  34.5941277  28.8891563   6.6770139  32.6213760
  28.7338276   5.6327734  32.8925476  27.5793056   7.3523326  32.2012787
  26.8870277   7.2786846  33.0399857  27.8330097   8.3929796  31.9993134
  27.0998478   6.9477587  31.3099079  29.8578568   6.7414241  31.6732750
  30.2469692   5.8639870  31.6904850  30.3909225   6.2302985  34.5730286
  31.5397739   6.2638702  34.3310242  29.8590050   5.3858099  35.5074921
  28.4836006   5.1423898  35.7284775  27.9303646   5.2195864  34.7924919
  28.1637554   5.9900298  36.3345375  28.3562508   3.8038228  36.4671326
  28.3032265   3.0259042  35.7054672  27.4026222   3.7652159  36.9936295
  29.5763760   3.7334352  37.3336449  29.8270683   2.7073929  37.6028862
  29.4231033   4.2989831  38.2527542  30.6068039   4.4794617  36.4495087
  31.1652832   5.0920854  37.1572456  31.5889091   3.4799037  35.8482933
  32.4984894   2.9794714  36.5446091  31.6367970   3.3222618  34.4787102
  30.9652824   3.8859560  33.9772949  32.6865311   2.6483331  33.6858253
  33.0043182   1.8213735  34.3208427  32.1131477   2.1960797  32.3252907
  32.9583511   1.8202658  31.7486629  31.3644257   1.4135039  32.4481316
  31.5378036   3.4264710  31.5327301  31.9651737   3.5856106  30.4222088
  30.6690521   4.1301761  32.0930023  33.9134865   3.6426282  33.5079918
  35.0130997   3.1595089  33.2274017  33.8462105   4.9165316  33.8314400
  32.9391975   5.3434577  33.9545746  34.9400826   5.8899498  33.8293877
  35.7226753   5.4617519  33.2030525  34.4269638   7.1805053  33.1504402
  33.5738716   7.5667486  33.7082367  35.2614250   7.8816309  33.1644135
  34.0059433   6.9715996  31.7055664  33.2793808   6.1603928  31.6591587
  33.3856163   8.3236666  31.2824097  34.1364365   9.0922060  31.4660282
  33.0008659   8.3394756  30.2626953  32.5377426   8.4856853  31.9479618
  35.1753426   6.6239862  30.7435322  36.0330505   7.2964573  30.7288761
  35.4399223   5.5845346  30.9375381  34.7153969   6.7639608  29.7652912
  35.6186676   5.9950409  35.2516022  34.9348907   6.0756278  36.3221588
  36.9339256   6.1007290  35.2904816  37.4127388   6.2328811  34.4110641
  37.7354012   6.1660185  36.4935379  37.1561317   6.5952506  37.3110390
  38.0210876   4.7261848  36.8533134  37.0687218   4.2545691  37.0955544
  38.6897659   4.2178125  36.1586685  38.6038589   4.4546757  38.1824074
  37.9759216   4.6859512  39.4374161  37.0532227   5.0622497  39.6021233
  38.7967262   4.1765537  40.3954964  38.6541214   4.1227126  41.4646835
  39.9142876   3.6503839  39.7633018  40.6527138   3.0943575  40.1703148
  39.7586212   3.7946982  38.4016418  40.5443916   3.4538686  37.7437630
  38.9969902   7.0217977  36.4164238  39.6406898   7.2655268  37.4501038
  39.4034615   7.6093731  35.2968521  38.8033104   7.6507025  34.4855461
  40.6978035   8.3380251  35.2042160  41.4640884   7.5890465  35.4040642
  41.0043983   8.7599974  33.7606201  40.7776642   7.9939675  33.0190697
  40.5146599   9.6874123  33.4637070  42.0731430   8.9514055  33.6644173
  40.9717293   9.5669870  36.0788689  42.0663071   9.7140923  36.6404800
  39.9314766  10.4538832  36.2181549  39.0304337  10.2764254  35.7977638
  40.2066269  11.7993212  36.7343788  40.7605171  11.7500839  37.6718674
  41.1414909  12.5483932  35.7343941  41.9420586  11.9153614  35.3516922
  40.3766518  12.9400053  34.4333992  39.6547928  13.7416191  34.5897369
  41.1031761  13.3635998  33.7399788  39.9283867  12.0490265  33.9937248
  41.8219109  13.8252344  36.3257790  41.2080460  14.6003399  36.7845612
  42.6505775  13.4764767  36.9420471  42.3048820  14.3481894  35.5003357
  38.9484787  12.5466108  37.0831261  37.9107285  12.3279486  36.4219437
  39.0519791  13.3616667  38.1199112  39.9533157  13.4427071  38.5683823
  37.9515839  14.2675190  38.4825974  36.9741173  13.8092527  38.6330986
  38.1635284  14.7547750  39.9128647  39.2217255  14.9379473  40.0993309
  37.6735001  15.7258701  39.9832153  37.6228447  13.9373970  40.9536209
  36.2220497  13.8620243  41.2004356  35.6095810  14.3529463  40.4586220
  35.6700020  13.2932596  42.3710022  34.6187019  13.1426611  42.5671883
  36.5609970  12.6128130  43.2184448  36.1281776  12.0928354  44.0602837
  37.9752960  12.6011047  42.9581833  38.6608505  12.1611271  43.6672897
  38.4915009  13.3148642  41.8772659  39.5612602  13.2383261  41.7501488
  37.8031693  15.2876263  37.3776779  38.7378616  16.0410461  37.1634979
  36.6950417  15.4191303  36.6434441  35.6037636  14.4636869  36.7568970
  35.0828514  14.7924223  37.6561661  35.9172554  13.4424553  36.9735031
  34.8729477  14.5574093  35.4556847  33.8321686  14.4871750  35.7718201
  35.0524940  13.6707544  34.8476410  35.2994804  15.7767220  34.7314110
  34.5343056  16.5284042  34.9252663  35.2800903  15.6352987  33.6507988
  36.5907402  16.1496334  35.3640976  37.3692856  15.8575764  34.6593513
  36.6394005  17.6696949  35.4172630  36.7797623  18.4197807  34.4168663
  36.5924721  18.2742043  36.5729485  36.4398270  17.8188286  37.4614487
  36.3739357  19.7048302  36.8243904  35.6077042  19.9557667  36.0908966
  35.6600075  19.9273834  38.1026306  36.2968674  19.7565460  38.9705772
  35.1462746  20.8867817  38.1637268  34.8387146  19.2186718  38.2089500
  37.5884628  20.6328964  36.6540565  37.4510231  21.8030224  36.3442307
  38.8667831  20.0982971  36.5979958  38.9501343  19.1617737  36.9668808
  40.0886383  20.7295341  36.1181717  40.4074173  21.5425072  36.7705154
  41.1601486  19.5349617  35.9189453  41.3549995  19.0867729  36.8932495
  40.8208656  18.7257748  35.2722626  42.4789162  20.1885757  35.4777985
  42.4246101  20.4098320  34.4118729  42.6083260  21.1325798  36.0071526
  43.6926422  19.2722874  35.7666817  43.7075577  19.0031357  36.8228226
  43.5355301  18.3825188  35.1569824  44.9608192  19.8831635  35.4713173
  44.9458885  20.1824265  34.4233093  45.1691322  20.6950722  36.1681023
  46.1043129  18.9911880  35.6332626  46.0236053  18.2057037  35.0035019
  46.9231491  19.4628487  35.2766838  46.2759590  18.7660408  36.6027718
  39.9126587  21.4444237  34.8054199  40.5673676  22.4886761  34.6104584
  39.0922852  20.9123077  33.8917694  38.7465439  20.0007305  34.1555634
  38.8624840  21.4375610  32.5746307  39.7730026  21.7938805  32.0928688
  38.3833961  20.3359547  31.6939507  37.4045868  20.5634861  31.2717323
  39.1452637  20.2919178  30.9156685  38.3676338  19.4266853  32.2948494
  37.9555359  22.6667194  32.5890503  38.0083885  23.5126762  31.7085819
  37.1857147  22.7958775  33.6445885  37.2131691  22.0452251  34.3197670
  36.3277931  23.9718056  33.7988014  35.8896294  24.3119469  32.8604965
  35.2566452  23.7510128  34.8826485  35.8024712  23.4491482  35.7765427
  34.4173508  25.0430698  35.2222595  34.0913620  25.5445976  34.3110466
  33.4924431  24.8659725  35.7711525  34.9886436  25.7615185  35.8101044
  34.3967056  22.5854111  34.5478706  33.6103630  22.4667130  35.2933044
  33.9038544  22.7279530  33.5861664  35.0301514  21.6997719  34.5978012
  37.1953697  25.1410751  34.2783699  37.2883224  26.1571045  33.6310387
  38.0210724  24.9802227  35.2908745  37.7439346  24.1702118  35.8267632
  38.9246178  26.0192089  35.7213364  38.5108910  27.0260868  35.6654053
  39.3184433  25.6715164  37.1792641  39.9076805  26.4724407  37.6258354
  38.4588394  25.5249386  37.8332481  40.1639175  24.4206753  37.3696976
  39.6399536  23.5375595  37.0040894  41.0654335  24.5276089  36.7664261
  40.4934464  24.2435703  38.8432045  41.1735573  25.0761509  39.0231018
  39.6059647  24.4593449  39.4381142  41.0606422  22.9351425  39.2466507
  42.0706253  22.9347363  39.2522354  40.4439774  21.7749424  39.5097122
  39.1716270  21.7097130  39.2043076  38.6990929  20.9223919  39.6249466
  38.7388496  22.5764484  38.9186974  40.8887825  20.7619152  40.0638313
  40.2307472  19.9958611  40.0797195  41.8336296  20.7849636  40.4199829
  40.1307182  26.2461052  34.8704338  40.7495766  27.2822132  35.0306664
  40.5497665  25.3008442  33.9722061  40.0073242  24.4525185  33.8934822
  41.4479408  25.6731701  32.8417625  42.4350052  25.7885513  33.2895279
  41.3876457  24.5718536  31.8201046  41.7922363  23.7346344  32.3888512
  40.3660736  24.2489529  31.6195469  42.1807137  24.8891582  30.5314789
  42.1382446  23.9889545  29.9183464  41.7126999  25.6836472  29.9502277
  43.6667976  25.2892475  30.7135353  44.2795372  25.8518066  29.7726345
  44.2398224  24.9371967  31.7635307  41.0079536  27.0319691  32.1800308
  41.9236374  27.6950283  31.6964264  39.7304611  27.2417850  31.8952026
  39.1294975  26.4387703  32.0139847  39.1554070  28.5089664  31.3785629
  39.6692848  28.7481632  30.4475327  37.6704140  28.3208103  30.9987431
  37.1639252  28.0614014  31.9284058  37.2858849  29.2728157  30.6327877
  37.3671227  27.0555229  30.0857639  37.7720757  26.1550293  30.5475254
  35.9094429  26.9841022  29.7287998  35.5716667  26.0798779  29.2224560
  35.2734947  26.9621887  30.6137791  35.7208023  27.9070759  29.1805000
  38.0485191  27.2501831  28.7081413  37.8727036  26.4532776  27.9855518
  37.5238838  28.1292591  28.3338604  39.1093903  27.3886108  28.9166832
  39.5065651  29.7038841  32.2999496  39.4326668  29.6107502  33.4812050
  39.6340866  30.9031582  31.6546326  39.6884193  30.8748398  30.6464939
  39.9196510  32.0931320  32.4069557  40.8523521  31.9866982  32.9608879
  40.0752716  33.2512054  31.4652939  40.8045998  33.0495605  30.6807537
  39.0961761  33.4950066  31.0529366  40.4096680  34.3522797  32.2259483
  41.3477592  34.3035240  32.4239464  38.8384705  32.4942284  33.4214516
  37.6579552  32.6229782  33.0486374  39.2977371  32.6347275  34.6764145
  40.2706642  32.4242363  34.8473396  38.4905319  33.0790710  35.7816963
  39.0397568  33.2387466  36.7095757  37.9708214  33.9724312  35.4354248
  37.4779434  32.0748177  36.2341690  36.8524284  32.2983589  37.2429504
  37.3097115  30.9031830  35.5382729  37.9713287  30.8274307  34.7789154
  36.3502541  29.8503361  35.8039856  35.4204292  30.3441067  36.0863190
  36.1004791  28.9737511  34.5790672  37.0560112  28.7256260  34.1170120
  35.5332718  28.1266804  34.9648743  35.1305161  29.6566792  33.5944061
  35.4240303  30.4281292  32.5298729  36.4543953  30.7244148  32.3996162
  34.3006897  31.1581802  32.1850052  34.4268150  32.0279388  31.6872940
  33.1517868  30.6077995  32.7216034  31.7917213  30.8292484  32.4622345
  31.4696960  31.6936684  31.9005604  30.8359394  30.0096684  33.0191193
  29.7828217  30.1557465  32.8293648  31.2416821  28.9416027  33.8685379
  30.4696064  28.3217049  34.2998466  32.6536674  28.6570892  34.0837059
  32.9727631  27.8692493  34.7499542  33.6597023  29.5362015  33.4789352
  36.7724838  29.0776424  37.0857430  35.9895706  28.2767372  37.5143814
  37.9622688  29.3755951  37.7126617  38.6460609  29.9508934  37.2419624
  38.3761673  28.8485775  38.9805717  38.1171074  27.7904873  38.9427147
  39.9194565  28.9209328  39.1604118  40.1837502  28.2361889  39.9662552
  40.3718300  28.4715405  38.2763824  40.3862953  30.3634682  39.3511124
  39.7261772  31.0009193  39.9393311  41.3359146  30.3054752  39.8830490
  40.7392464  31.0917282  38.0825233  40.3729858  30.8229160  36.9342041
  41.6128845  32.0846481  38.1149635  41.7335205  32.6536751  37.2892799
  42.0456848  32.4289322  38.9601059  37.5100937  29.3748093  40.1536674
  37.3739738  28.7734699  41.2066536  36.7850800  30.5049095  39.9290962
  36.9201050  31.0354462  39.0803337  35.9760590  31.0857601  41.0345001
  36.3477783  30.7099609  41.9877625  36.1989365  32.5940285  41.1640129
  35.6804161  33.0843544  40.3401070  35.7936096  33.0307999  42.0767288
  37.5961685  33.1281471  41.1821861  38.5026054  32.7853050  42.2073593
  38.1172943  32.2669716  43.0729637  39.8483887  33.0752373  42.0722733
  40.5586357  32.7068291  42.7976913  40.3006058  33.7231979  40.8662529
  41.6459503  33.8795509  40.7019997  41.7327805  34.8225250  40.8596687
  39.3660583  33.9991150  39.8400002  39.7579384  34.4457207  38.9381294
  38.0254860  33.7996254  40.0573463  37.4125862  34.0063362  39.1924629
  34.5345192  30.6117096  41.0624886  33.9176064  30.9161758  42.0844841
  34.0765953  29.8722706  40.0394859  34.7101669  29.7882805  39.2574158
  32.7400932  29.2071304  40.0245590  31.9949360  29.9523220  40.3030052
  32.3509712  28.7772388  38.5913506  33.0368462  28.0363159  38.1806030
  30.9220810  28.2522717  38.7186165  30.8204918  27.4252853  39.4213791
  30.3534012  29.1330891  39.0167198  30.4634800  28.0204945  37.7573318
  32.3207321  29.9650364  37.6603317  31.8746834  29.5493622  36.7568054
  31.6316605  30.7533188  37.9634476  33.3065872  30.4264126  37.6026688
  32.9015732  27.9055271  40.9170151  33.7254944  27.0274448  40.5730362
  32.1785698  27.8913326  42.0054054  31.1740780  28.8650494  42.3048248
  30.6150322  29.0440998  41.3863983  31.6102772  29.8242931  42.5835342
  30.3162613  28.3033905  43.4621429  29.5209503  27.6397133  43.1228600
  29.8264084  29.0926399  44.0324326  31.2866631  27.3430595  44.1333313
  30.7468357  26.6028957  44.7239609  31.9616165  27.9133167  44.7715721
  32.1426201  26.7764683  42.9560242  33.1628952  26.5397835  43.2578888
  31.4646664  25.4679184  42.3610840  30.3660297  25.5247345  41.8201637
  32.1801872  24.3345909  42.5350685  33.0890503  24.5003319  42.9432335
  31.9054089  23.0580044  41.9222031  30.8188457  22.9715004  41.9231949
  32.5157738  23.0277557  40.5021439  32.2571411  23.8964882  39.8967400
  34.0181122  23.2525311  40.6433563  34.4113655  23.2138386  39.6275063
  34.2221107  24.2647343  40.9925423  34.4510841  22.4475861  41.2372437
  32.4138985  21.7552776  39.5752907  32.9716377  20.9544678  40.0608215
  31.3486614  21.5289612  39.5289230  32.8402367  21.9083366  38.5838737
  32.3708458  21.8360443  42.7856369  33.2077827  21.9733181  43.6357880
  31.7848740  20.6588058  42.4726868  31.0148392  20.7036552  41.8206635
  31.9784698  19.3306522  43.0652924  33.0416603  19.1197872  43.1804543
  31.4752579  19.2011070  44.5234604  31.4176197  20.1697102  45.0200348
  30.0639915  18.5647469  44.6997490  29.7461567  18.7428493  45.7270622
  29.3787918  19.0400391  43.9978256  30.0865383  17.4794025  44.6016579
  32.3302574  18.3268032  45.2925072  32.3386421  17.4055405  45.0226822
  31.5158787  18.1837101  42.1136208  30.6914864  18.4418163  41.2232780
  32.0032349  16.9253349  42.1478081  32.6330070  16.5342007  42.8337364
  31.8206673  15.9316616  41.1008263  31.2789059  16.3663425  40.2607994
  33.2084503  15.4763489  40.6519623  33.5434456  14.9845400  41.5652008
  33.0716095  14.7664766  39.8362083  34.2894363  16.8695583  40.1919556
  34.8385506  16.8614368  41.4098663  31.0271873  14.7615204  41.6207886
  31.3908176  14.0045166  42.5475693  29.8628178  14.5467596  41.0899963
  29.6640396  15.1052294  40.2722588  28.7789097  13.6364708  41.5563927
  28.8760242  13.3583765  42.6058350  27.4159718  14.2504950  41.4538879
  26.7891541  13.4946127  41.9270096  27.5380630  15.1639910  42.0358849
  26.7682858  14.4837103  40.0504608  27.5219593  14.7291260  39.3022308
  26.2637882  13.5609722  39.7638664  25.7082348  15.9808941  39.9460602
  25.2184753  15.8801231  38.2296524  24.6940060  16.7839775  37.9196892
  26.1195984  15.6831102  37.6489105  24.5945911  14.9863338  38.2327156
  28.7614727  12.3163214  40.8287735  29.1044464  12.2360525  39.6675339
  28.2039986  11.2557240  41.4132538  27.8250427  11.3794041  42.3412590
  27.9018898   9.9757147  40.8694878  28.7497540   9.6140156  40.2877655
  27.7294559   9.0403643  42.0331421  28.7017879   8.8939142  42.5034828
  27.1099224   9.5303679  42.7842560  27.1619797   7.6250720  41.7248573
  26.9031315   7.1677833  42.6798363  26.2115440   7.6566458  41.1921501
  28.0294209   6.6587062  40.9428406  28.9190807   7.0906949  40.2116470
  27.9113312   5.3189836  41.1910782  27.3538170   4.9641576  41.9548683
  28.6639290   4.7874937  40.7772980  26.6357193   9.7984619  39.9011230
  25.5138760  10.2683239  40.2803268  26.8744488   9.1281624  38.7013741
  27.8143215   8.9664173  38.3688469  25.8763847   8.9825068  37.6766510
  25.1756916   9.8060112  37.8143883  26.5675755   9.2579327  36.2914925
  26.9689636  10.2683210  36.2133446  27.3719139   8.5379906  36.1404114
  25.5801239   9.0159302  35.0684357  26.0331821   9.3691416  34.1421089
  25.3858795   7.9601588  34.8794479  24.2863903   9.8034058  35.0010071
  23.5482464   9.8304567  34.0550117  23.9446449  10.5126505  35.9842377
  25.1671638   7.5560541  37.7293663  25.8689556   6.5663762  37.8841820
  23.8072014   7.5068712  37.7304955  23.1960182   8.3057604  37.6392136
  23.0742130   6.3034172  37.8689117  23.5026226   5.6837487  38.6566772
  21.5822315   6.5561519  38.1151428  21.0228424   5.6252699  38.2081146
  21.4872379   7.1440244  39.0280952  20.9261436   7.2369390  36.9078026
  21.3845005   8.2113037  36.7386246  20.9868774   6.5935874  36.0300140
  19.1490726   7.7812247  37.2086487  18.3388901   6.2220359  37.7494431
  18.9585972   5.7393322  38.5051308  17.3693562   6.4600315  38.1870079
  18.2392941   5.6064453  36.8554459  23.2051888   5.4171925  36.6499252
  23.4467392   5.8017340  35.5316467  23.1450539   4.0829554  36.8257103
  22.8534279   3.7337811  37.7274475  23.2820683   3.0415416  35.7902451
  23.7024021   3.5318906  34.9121895  24.0963154   1.9181683  36.3253822
  25.0400276   2.3464835  36.6631012  23.5826778   1.4654307  37.1735001
  24.4540958   0.8055200  35.2780190  24.0330734   0.8998236  34.0811539
  25.0796089  -0.1681148  35.7334328  21.9166374   2.5376420  35.4146423
  21.1112919   2.2219677  36.2076492  21.6639404   2.5007131  34.0400314
  22.4896927   2.6793287  33.4865608  20.3253193   2.3707426  33.4535751
  19.6333981   1.8496788  34.1152687  19.7001705   3.7529347  32.9994545
  20.4485512   4.3051267  32.4310265  18.5187302   3.6761959  32.0514183
  17.5605240   3.3161211  32.4259758  18.3208828   4.6608377  31.6278172
  18.6925049   2.9600186  31.2483044  19.3787937   4.4854984  34.2799606
  20.3084621   4.7629743  34.7767754  18.7831135   5.3650780  34.0358086
  18.7552376   3.9273047  34.9783173  20.5650826   1.4463899  32.2168503
  21.5239086   1.5811448  31.4261913  19.6574612   0.4587670  32.1120338
  18.8573418   0.4339581  32.7279015  19.7126122  -0.6019154  31.0471420
  20.6358356  -1.1627283  31.1929131  18.6316280  -1.7375584  31.2901249
  18.6065693  -2.1774008  32.2871246  17.2028503  -1.1707029  31.0494957
  17.1565628  -0.1402563  31.4018383  16.9299736  -1.3216164  30.0050526
  16.4240875  -1.6297423  31.6585178  18.9064140  -2.7721000  30.3954754
  19.7340393  -3.1718173  30.6727180  19.7870159  -0.0216277  29.6391392
  19.0421581   0.8837566  29.3189468  20.5806026  -0.5641813  28.7673378
  21.0881538  -1.3882377  29.0561695  20.5901222  -0.0937328  27.4097157
  21.1621265  -0.7833558  26.7889671  19.5439587  -0.1430503  27.1077061
  21.1157055   1.3664683  27.2689762  21.1648712   1.8929671  26.1516151
  21.5064144   2.0154431  28.3854065  21.2924538   1.4865499  29.2188301
  21.9918556   3.3983605  28.3950024  21.1573048   3.9758732  27.9973793
  22.1611538   3.6924589  29.4308338  23.3413067   3.5053310  27.6914444
  24.0412846   2.6056340  27.2997398  23.7240181   4.7504134  27.2924824
  23.0094929   5.4631081  27.3327198  24.9845772   5.1095648  26.6625423
  25.2268314   4.3966742  25.8743725  24.9043312   6.5560508  26.0895252
  24.0475121   6.6242075  25.4192085  24.8858776   7.3294106  26.8574276
  26.1020012   6.9190588  25.1999187  27.0325222   7.0078235  25.7605896
  26.2246990   5.9712758  24.0439548  26.6131687   4.9994702  24.3485622
  25.2268105   5.8140988  23.6345520  26.8346252   6.3909612  23.2439842
  25.7788963   8.3611488  24.6886349  24.8874912   8.3398895  24.0617085
  25.7689896   9.0978899  25.4918880  26.6685581   8.5567989  24.0900364
  26.1128864   5.1666307  27.6732845  25.9343071   5.7472711  28.7143135
  27.2533512   4.4573622  27.4345455  27.3474979   4.0009484  26.5384846
  28.3211784   4.4342241  28.3851776  27.9883785   4.8935995  29.3159389
  28.7679195   3.0052261  28.7373791  29.1965714   2.5962465  27.8224506
  29.5053253   3.0179312  29.5399837  27.4975033   2.1485980  29.1270256
  26.9570599   1.8651987  28.2238617  28.0654888   1.2669762  29.4240761
  26.4069767   2.6133161  30.0967808  26.8672676   3.0781181  30.9686699
  25.8096790   3.4462454  29.7258682  25.4821892   1.4264338  30.3600864
  25.1645527   1.0320060  29.3948708  26.2169209   0.7559835  30.8059158
  24.3203449   1.7670344  31.2307854  24.6196823   1.8023835  32.1947594
  23.9120045   2.6732976  31.0517578  23.6641998   1.0100805  31.1019611
  29.4939003   5.3180046  27.9831791  29.5124340   5.9637971  26.9431610
  30.6267090   5.3956790  28.7196083  30.8514576   4.6952467  29.4116936
  31.6012325   6.4696684  28.5841904  32.1349792   6.5091405  29.5337505
  32.6014786   6.1760106  27.4516525  32.0541801   6.1994314  26.5093060
  33.2315369   7.0502939  27.2880688  33.4467888   4.9597116  27.7760372
  33.9297218   5.0176988  28.7514915  32.7876892   4.0918164  27.7971668
  34.4549141   4.8512082  26.6698513  33.8986855   4.9408813  25.7367554
  35.1752892   5.6689239  26.6922092  35.0438576   3.4321451  26.8482761
  35.6436882   3.2268953  27.7349415  34.1125755   2.8746302  26.9482574
  35.6584167   2.9685452  25.5612183  35.8199577   1.9845618  25.7217846
  35.0572205   3.0510137  24.7538395  36.5407715   3.3817236  25.2950706
  31.0649605   7.9244113  28.4195671  31.6267738   8.7376804  27.6272392
  29.9851818   8.3111525  29.0129757  29.8088360   7.7763500  29.8514194
  29.3380222   9.6041203  28.9843864  29.7475796  10.1248398  28.1188126
  27.8961353   9.3537531  28.5581017  27.9142818   8.8621635  27.5854187
  27.4281082   8.7719927  29.3522091  27.0397415  10.9511433  28.4578266
  26.3851147  10.7052727  29.5962067  29.5886459  10.5050497  30.2268295
  29.6659489  10.0897961  31.3485737  29.7564163  11.7784157  29.8861771
  29.4689007  12.0509214  28.9571056  30.0554733  12.8538151  30.8075867
  30.0864048  12.3336000  31.7649384  31.3957329  13.5553446  30.5517998
  31.3364716  13.8012562  29.4915543  31.6016808  14.9466496  31.2734928
  30.7468472  15.5702076  31.0116901  31.7707539  14.8137980  32.3420715
  32.4358025  15.4991665  30.8409767  32.5924454  12.6207275  30.6841831
  32.6875992  12.3706999  31.7408447  32.5880203  11.7742949  29.9974270
  33.9348526  13.2507887  30.4075356  34.1858788  13.9299431  31.2222977
  34.7426605  12.5192108  30.3890400  33.9626083  13.8486671  29.4965611
  28.8409729  13.8198900  30.7719154  28.2336731  14.0554171  29.7414684
  28.4755726  14.3459129  31.9235611  28.9985046  14.0294437  32.7276077
  27.4254704  15.3817482  32.1413155  27.3233089  15.8615599  31.1679420
  26.1363201  14.6191854  32.5821228  26.3303566  14.1531372  33.5481682
  25.3652554  15.3576279  32.8018112  25.6389275  13.3959951  31.7465096
  25.6924744  13.6417103  30.6859150  26.2486534  12.5540466  32.0743141
  24.0945339  12.9187775  31.8577480  23.4628716  13.6482334  31.3507957
  24.0066509  11.9905663  31.2931232  23.6639652  12.5478477  33.2507820
  23.6153183  11.5777683  33.5276909  23.2353992  13.3881187  34.1655235
  22.8177471  14.5161142  33.8534355  22.3134804  14.9934521  34.5868950
  22.5122452  14.7169304  32.9119225  23.1702003  13.0097446  35.3890572
  23.0714741  13.7684479  36.0483932  23.5446339  12.1238146  35.6973343
  27.7721272  16.5738678  33.0685501  28.7821236  16.5641689  33.7491608
  27.0145912  17.6195126  32.9541664  26.3015480  17.6072216  32.2389565
  27.1985226  18.9727058  33.5463715  27.6177425  18.7283306  34.5224075
  28.3940029  19.7246494  32.8114243  29.3089924  19.1711617  33.0224838
  28.3638515  19.9278069  31.2900734  27.7442265  20.8106327  31.1326599
  29.3709869  20.0135403  30.8821144  28.0639324  19.0601673  30.7024078
  28.6158600  21.1767578  33.3540916  28.9934444  21.1371403  34.3758354
  29.4366322  21.6378689  32.8047104  27.6679554  21.7062283  33.4502258
  25.9329357  19.7403927  33.7621727  24.9031944  19.6976357  33.0690155
  25.8256245  20.4003410  34.9783707  26.5634632  20.3969097  35.6680679
  24.7409420  21.2298412  35.2816353  24.3175735  21.5114021  34.3174858
  23.7693043  20.3606987  36.0809135  23.5383320  19.4325085  35.5582123
  24.1137867  20.1984348  37.1022339  22.3531685  20.8950691  36.1065903
  22.0170860  21.0804501  35.0864029  21.6573105  20.1314201  36.4540405
  21.9160919  22.4072933  37.1097870  20.2242775  22.7256927  36.4100800
  20.3217430  23.4336643  35.5870514  19.8102703  21.7790318  36.0629005
  19.6449280  23.1593628  37.2251816  25.2446365  22.4452648  36.0457687
  26.0911465  22.3030453  36.9106102  24.7018261  23.5942249  35.8299522
  24.0720806  23.6983070  35.0472069  25.1306438  24.8342915  36.5625916
  25.5666828  24.6307316  37.5406227  26.3567486  25.4600143  35.8790817
  26.8458328  26.1561794  36.5604439  27.0119534  24.6004505  35.7377853
  26.0385628  26.0807190  34.4718819  26.0455246  25.2746639  33.7381744
  25.0700588  26.5769920  34.5336342  27.1151352  27.4924335  34.0354881
  26.7583981  27.5087223  32.2514915  25.8305321  26.9780006  32.0381699
  26.6653538  28.4987507  31.8050785  27.5151653  26.9904861  31.6625671
  23.8869038  25.7706566  36.7311440  22.8086109  25.5295753  36.1336746
  24.0351830  26.8444099  37.4709892  24.9594364  27.0568104  37.8184662
  22.9875679  27.8402519  37.7525978  22.2120361  27.7903233  36.9882927
  22.2547264  27.5170631  39.0633202  21.7973156  28.4666233  39.3411942
  21.2172604  26.3512135  39.1006165  20.4145603  26.6669750  38.4342308
  21.5474548  25.4257412  38.6288414  20.9422760  26.1223278  40.1302261
  23.1343651  27.3242435  40.1112099  22.5838394  27.1577511  40.8798485
  23.5134888  29.2481575  37.6937218  24.5253563  29.5859928  38.2814865
  22.8159275  30.1998653  37.0768852  21.8907509  29.9094849  36.7943497
  23.3194199  31.4384956  36.5473099  24.1591263  31.8443565  37.1114616
  23.9176693  31.2517891  35.0931664  23.1545944  31.4477959  34.3399048
  25.0344772  32.3125305  34.9069633  24.6879902  33.3431816  34.9831352
  25.8417892  32.2068405  35.6316528  25.3217926  32.1733284  33.8647690
  24.5030556  29.8708038  34.7102776  23.6303005  29.2303925  34.5827103
  25.1401157  29.9536228  33.8297119  25.1515656  29.4000854  35.4491768
  22.2319317  32.4986305  36.3957787  21.1868534  32.2284508  35.8558464
  22.5027370  33.7467537  36.6487389  23.4113159  34.0028801  37.0078812
  21.5635757  34.8115997  36.4564629  20.6270981  34.4512177  36.8821831
  21.9428310  36.1058655  37.2149391  21.2325954  36.8392830  36.8331451
  21.7822247  35.9783936  38.2854805  23.3705425  36.7316284  37.0031281
  24.1597900  36.0514145  37.3232651  23.4667091  36.9832191  35.9469299
  23.6524200  38.0218124  37.8114777  22.7969837  38.5598183  38.5208206
  24.7812557  38.6270294  37.7313347  24.7600060  39.5385704  38.1657791
  25.5714359  38.2067184  37.2633018  21.3956394  35.0439377  34.9757652
  22.4631119  35.2583160  34.3417740  20.1646671  35.1929321  34.4613533
  19.3460178  35.1615105  35.0520515  20.0032768  35.5086365  33.0386238
  20.6385632  36.3075981  32.6563034  20.3881264  34.2258987  32.3005905
  21.4204388  34.0247192  32.5868759  19.5902138  32.9491997  32.6614304
  19.9312038  32.1016083  32.0669479  19.6386356  32.7460938  33.7312431
  18.5331078  33.0504570  32.4157143  20.3812466  34.4689751  30.9398632
  21.0563965  35.1428795  30.8320351  18.5461769  35.8461075  32.7054253
  17.5919495  35.4302864  33.3753967  18.3883381  36.6723061  31.7116776
  19.2150784  36.9224014  31.1881771  17.0906467  37.0188789  31.0337639
  16.3517990  36.9274635  31.8299122  17.1490269  38.3586540  30.3766937
  17.9061871  38.4212761  29.5951023  16.2111378  38.5491371  29.8549805
  17.3441353  39.5569153  31.4346676  16.8791389  39.4203415  32.5845070
  17.9357700  40.6362572  31.0713005  16.5766563  35.9752922  29.9991150
  15.5446520  36.1440735  29.3915081  17.2688293  34.8621750  29.8562889
  18.0808334  34.7653198  30.4490528  16.8330536  33.7615128  29.0642529
  16.3060665  34.1583862  28.1965637  17.9780769  32.9549141  28.4146042
  18.5765266  32.4742775  29.1885204  17.3572464  31.9474621  27.4219990
  16.5497417  31.3640976  27.8644066  16.8201580  32.3525009  26.5643425
  18.1190052  31.2615261  27.0514355  18.8692589  33.8654175  27.6361103
  19.4027004  34.5742302  28.2694588  19.5774212  33.2317123  27.1022358
  18.3323441  34.4087601  26.8585453  15.8711090  32.8773842  29.8457050
  16.2537403  32.3662376  30.8785191  14.5861435  32.7757454  29.4511566
  13.9242268  33.3566856  28.3193913  14.4750719  33.0959244  27.4156933
  13.8873558  34.4367332  28.4616966  12.4934616  32.8239479  28.1429996
  12.4477415  32.0728111  27.3544483  11.6535463  33.5093193  28.0293884
  12.3317022  32.2376366  29.5202217  11.5762396  31.4521866  29.4990654
  11.8213711  32.8672600  30.2490826  13.6880360  31.8573303  30.1515541
  13.5755491  32.0890999  31.2106724  14.0168571  30.4165974  29.8497505
  14.7848721  30.1060810  28.9274311  13.4873886  29.4901562  30.5881023
  12.9043770  29.8386841  31.3355808  13.7793121  28.0181484  30.4416542
  14.8454943  27.9875526  30.6661949  12.9489002  27.1748104  31.3913269
  11.8837233  27.3907948  31.3085651  13.0283804  26.1189747  31.1324997
  13.1198587  27.3381233  32.8796387  13.9020367  26.6854649  33.2673683
  13.3862028  28.3549500  33.1681252  11.8720684  26.9750214  33.6452141
  11.2176075  26.0431404  33.2513199  11.5895338  27.5791492  34.7503967
  12.1767502  28.3171425  35.1118431  10.8652220  27.1400013  35.3005104
  13.5541601  27.5395279  28.9951973  14.4887123  27.0069675  28.3977375
  12.3970127  27.7872677  28.3056564  11.7056980  28.2861099  28.8472633
  12.0779619  27.3620605  26.9502430  12.1933842  26.2782555  26.9383335
  10.5718880  27.6096630  26.6786022  10.1533775  27.0424480  25.8472080
  10.1492424  27.2428303  27.6139698  10.2813101  28.9946842  26.2899933
  10.7364254  29.8878593  27.0382023   9.4570408  29.1972103  25.3512497
  12.8838892  28.0036068  25.7795296  12.5756588  27.8426189  24.6152000
  13.8904848  28.8439808  26.1226864  13.8978090  29.1902390  27.0714493
  14.8837166  29.4590034  25.2445965  14.6593761  29.0614986  24.2547646
  14.5937490  30.9720669  25.2456818  13.5195217  31.1516724  25.2023277
  15.0775032  31.2529068  26.1812096  15.3375435  31.8266144  24.0911045
  16.4047108  31.6066685  24.1207695  14.9302673  31.5388794  23.1218605
  14.9947891  33.3775444  24.1371975  15.0926552  34.0084724  25.2012901
  14.6787720  33.9850044  23.0946445  14.5163136  33.5181007  22.2138996
  14.2456245  34.8844986  23.2476082  16.2561741  29.1522350  25.5193348
  17.1456909  29.4011135  24.7334633  16.6312847  28.6410809  26.7227001
  15.9221191  28.4696732  27.4211292  18.0049648  28.2472210  27.0906639
  18.5935688  29.1449661  26.9017048  18.1643238  27.8953304  28.6607285
  17.1991119  27.4739323  28.9416008  19.3589001  26.9924316  28.9570827
  20.2770367  27.3647766  28.5026779  19.5001583  26.8588276  30.0296021
  19.1692543  26.0000210  28.5481167  18.3412457  29.2308903  29.3555126
  19.2912102  29.7637062  29.3976746  17.5949268  29.9297295  28.9777164
  17.9612465  29.0899754  30.8592606  18.7677441  28.5485592  31.3537598
  17.7701740  30.0811520  31.2705498  17.0004005  28.5954456  31.0018044
  18.5294456  27.1548004  26.1232128  17.7818813  26.2148914  25.9254284
  19.8175850  27.2474804  25.6091595  20.3872776  28.0569210  25.8100452
  20.5098801  26.2105217  24.7762165  19.7370567  25.6117344  24.2942448
  21.3379498  26.8175793  23.6658192  22.1281147  27.4883747  24.0031185
  21.8822403  25.9586029  23.2733765  20.3838348  27.5479355  22.6540947
  19.5819588  26.8391056  22.4475632  19.9821396  28.4463062  23.1227913
  21.0450249  27.8203964  21.3400249  21.9474201  28.3931580  21.5538635
  21.2699223  26.9223633  20.7646446  20.1565571  28.6169758  20.5165024
  19.1702747  28.6817589  20.7242260  20.5428066  29.2363472  19.4265594
  21.7869625  29.3239117  19.0439644  21.7950764  29.7260895  18.1175270
  22.5980148  28.8697433  19.4389668  19.6893444  29.7605762  18.5736446
  18.7354927  29.8357525  18.8970871  19.9822159  30.1941757  17.7097473
  21.2871647  25.3071899  25.6637478  22.3571644  25.7092628  26.1593418
  20.8303719  24.0994129  25.8522301  19.9978428  23.8381691  25.3435593
  21.5929604  22.9641094  26.4708672  22.3128433  23.3711586  27.1809254
  20.6318092  22.0516224  27.1894073  20.0375175  21.5059891  26.4564667
  21.2074699  21.2873154  27.7114677  19.7552509  22.6743107  28.1646461
  20.1451969  23.0424919  29.4442539  19.0432205  23.5346985  29.9964676
  18.9376240  23.9262238  30.9974461  18.0931301  23.5949097  29.0895576
  17.2150803  24.0795689  29.2088566  18.4794445  22.9950142  27.9838371
  17.8364811  22.9407005  27.1177826  22.3455582  22.1995602  25.4120388
  21.9274025  22.2509460  24.2114391  23.5721340  21.6655960  25.7687111
  23.8694515  21.7351494  26.7314491  24.5081215  21.2731285  24.6760597
  23.9146080  21.4065304  23.7716007  25.7126446  22.2005882  24.6164207
  26.2919235  21.9984493  25.5173512  26.6766148  21.7439327  23.5091743
  27.1544552  20.7906590  23.7350941  26.1517162  21.7026882  22.5547733
  27.5180626  22.4321079  23.4286785  25.3827686  23.6877270  24.3773785
  24.5583591  23.7671986  23.6687622  25.1292343  24.0633430  25.3687077
  26.1936016  24.2357635  23.8974762  24.7266865  19.7678204  24.7355404
  25.2225685  19.2693253  25.7810078  24.5037098  19.0362930  23.6737461
  24.1168213  19.4985294  22.8633404  24.6414623  17.5443954  23.6238956
  25.0275307  17.2203541  24.5903587  23.2372627  16.9587479  23.3794460
  22.6806145  17.4077663  22.5568695  23.2386398  15.9004278  23.1185722
  22.4362469  17.1274948  24.6605034  22.4807796  16.1762276  25.6792107
  22.9920044  15.2490425  25.4661961  21.9675446  16.2889194  26.9024868
  21.9263306  15.4903536  27.6284313  21.3972836  17.5614719  27.2238674
  20.8754578  17.6868515  28.4824734  20.6679020  16.8137932  28.8234882
  21.2202530  18.5830727  26.2729168  20.8517418  19.5671062  26.5224724
  21.7928696  18.3613968  25.0251312  21.6337204  19.1040974  24.2573566
  25.6250610  17.2093735  22.4097595  25.3553486  17.5608196  21.2382374
  26.7360420  16.6442451  22.7347755  26.8562622  16.3723469  23.7000313
  27.8144875  16.4921093  21.7408562  27.5361233  16.9169083  20.7764072
  29.0529175  17.3290806  22.1309547  29.2555828  17.0818939  23.1730328
  29.9832802  17.1161251  21.6044807  28.8609638  18.8740368  22.1626720
  28.1637859  18.9912720  22.9923153  30.1528587  19.5235710  22.5874805
  30.0266228  20.5797405  22.8255234  30.5667419  18.9258919  23.3996277
  30.8990402  19.3918343  21.8039227  28.4032345  19.5840759  20.8808422
  27.4728794  19.0803852  20.6184559  28.2448025  20.6434155  21.0828285
  29.1178799  19.5233021  20.0600567  28.2324123  15.0288029  21.6049385
  27.8872871  14.1504898  22.4121265  28.9443760  14.7720127  20.5219707
  29.2078648  15.4943295  19.8670425  29.5649166  13.4790154  20.1631413
  30.0067711  13.6200428  19.1767464  30.8089771  13.1725349  20.9805202
  30.5342445  13.1437378  22.0349369  31.2219944  12.2484121  20.5761509
  31.8730545  14.2424278  21.0516281  31.5387287  15.1902084  21.4735603
  32.6813393  13.9309502  21.7132607  32.6813469  14.4016237  19.8088856
  32.2229156  13.9224768  18.7024441  33.7380257  15.0217829  19.8580971
  28.4977837  12.4044209  20.0640526  27.7476463  12.3401709  19.0996399
  28.5729237  11.3942137  20.9484901  29.2974129  11.4226694  21.6516304
  27.5547752  10.3397255  21.2023258  27.0294762  10.1070166  20.2760391
  28.2261505   9.0336866  21.5434284  28.9323311   9.1388254  22.3670502
  27.4798889   8.3600206  21.9645844  28.7741547   8.2123728  20.3648586
  27.9749508   7.7302475  19.8018951  29.3146019   8.8855009  19.6993313
  29.8525257   7.1928105  20.7376842  30.2369804   6.8204193  19.7881470
  30.6174908   7.6727848  21.3480568  29.1714134   5.9676394  21.4643974
  28.5801296   6.3193870  22.3098240  28.4443932   5.4414659  20.8457813
  30.1255302   4.9809313  22.0474052  30.8212471   4.8440681  21.3281364
  30.6458054   5.2529073  22.8692608  29.6482449   4.1296039  22.3072910
  26.4143105  10.7189217  22.1582737  25.3544331  10.1735878  22.1581383
  26.5702724  11.7723417  22.9954662  27.4216957  12.3155394  22.9846230
  25.4984188  12.2892685  23.7938480  24.9591751  11.4457970  24.2249737
  25.9363194  13.1527128  24.9714508  25.2376595  13.2738466  25.7992802
  26.7949677  12.6826019  25.4508476  26.2238903  14.0943279  24.5037289
  24.3707180  12.9652863  23.0343170  23.3146248  13.2341108  23.5787106
  24.4095669  12.9358282  21.7064266  25.3349457  12.8606873  21.3087749
  23.3162785  13.4428425  20.8276882  23.1722622  14.4894905  21.0958099
  23.7720776  13.4907207  19.4154682  22.9327583  13.8625774  18.8277836
  24.8880291  14.5042048  19.3049316  24.4295292  15.4503307  19.5925369
  25.8539410  14.2123833  19.7171879  25.0714951  14.5848036  18.2335091
  24.1652679  12.1186085  18.8526859  23.2750912  11.5177040  18.6666718
  24.6681290  12.1877613  17.8880863  24.8307686  11.5626974  19.5131187
  21.9553738  12.7732706  20.9977379  20.9631863  13.3684072  20.5055733
  21.9029942  11.5452900  21.5890331  22.8503876  11.3036184  21.8422947
  20.6210117  10.7634821  21.9221611  20.0890026  10.7306738  20.9713745
  20.9545288   9.3100309  22.2953968  19.9884968   8.9854527  22.6821060
  21.3776283   8.4400711  21.0869923  21.4672966   7.3807707  21.3276978
  20.6742744   8.5114222  20.2573528  22.3559055   8.8007393  20.7691822
  21.9776249   9.1330156  23.3888092  22.0421715  10.0216141  24.0167599
  21.8275528   8.2163725  23.9591980  22.9319572   8.9605522  22.8912144
  19.7521725  11.5008612  22.9832420  18.5497932  11.4197855  22.9546394
  20.4176102  12.0718584  23.9569607  21.4237404  12.0223923  23.8837910
  19.8153820  12.7231483  25.1670609  19.0051250  12.1159334  25.5706348
  20.9213009  13.0391846  26.1842232  21.5719967  13.8331127  25.8176594
  20.4189091  13.4713125  27.0496502  21.8589420  11.8773603  26.5783100
  22.4762135  11.5918884  25.7264996  22.7692108  12.4310389  27.6984291
  23.1732903  13.4391565  27.6061554  22.1052856  12.4257431  28.5628815
  23.5153332  11.6797323  27.9571457  21.2376671  10.6034622  27.1876144
  20.5347519  10.1714573  26.4753056  22.0549011   9.9619617  27.5173264
  20.5296040  10.7592506  28.0015411  19.1181870  14.0498838  24.7753048
  18.4531746  14.6311283  25.5923023  19.3884544  14.6291819  23.5867004
  19.9340839  14.0851059  22.9337292  19.1172180  16.0404396  23.3502827
  19.7368641  16.6831703  23.9756145  19.6159286  16.3046741  21.9061127
  20.6854267  16.0944462  21.9149761  19.1369152  15.5858622  21.2413139
  19.2742271  17.7463760  21.3997059  18.2277813  17.9918709  21.5807610
  19.9358425  18.3724346  21.9983940  19.6027756  17.8782387  19.9245968
  19.8274651  18.9140606  19.6702595  20.5241108  17.3149319  19.7765121
  18.5834045  17.3462906  19.0521812  17.6211891  17.5261059  19.3009911
  18.6873665  16.7989388  17.8587418  19.8156185  16.4727974  17.3362026
  20.6391258  16.7263584  17.8631210  19.9347420  16.1016197  16.4044647
  17.6233196  16.5472889  17.2631149  16.7467327  16.6008873  17.7619343
  17.6505375  16.3509007  16.2727642  17.6206627  16.3954906  23.5111294
  16.7338257  15.7460699  22.9503593  17.2451725  17.4430809  24.2373161
  18.1304016  18.3366222  24.9199867  19.0018368  18.7152367  24.3858051
  18.5142765  17.8158798  25.7972393  17.2005825  19.5292645  25.3578815
  17.0595989  20.1591396  24.4795418  17.5440216  20.1130886  26.2118740
  15.8714724  18.7956829  25.6813316  15.0627842  19.5145950  25.5498428
  15.7323627  18.5311165  26.7295456  15.8403759  17.5602531  24.7865829
  15.6612358  16.7523689  25.4960403  14.7073870  17.4803371  23.7179127
  13.6417027  16.9653435  23.9025917  14.8843307  18.3071423  22.6751461
  15.8407478  18.5796967  22.4988480  13.9147444  18.5025101  21.5340576
  14.2187748  19.4034462  21.0011578  13.9705362  17.3182755  20.5823421
  13.7854815  16.5026894  21.2813950  13.1731596  17.3034382  19.8393288
  15.2767792  17.2114277  19.8445663  16.0710640  18.1937218  19.8469124
  15.4332142  16.3458958  18.9229259  12.5038071  18.9392643  21.8662510
  11.5233564  18.6454468  21.0855160  12.3449268  19.7713528  22.9181576
  13.2012901  20.2387333  23.1794968  11.0695496  19.9030151  23.6921253
  10.5092669  18.9687767  23.7292919  11.3452530  20.2823582  25.1399155
  11.6942053  21.3144245  25.1057262  10.4141903  20.3864937  25.6970348
  12.1966124  19.2622871  26.0185490  13.1159782  19.0459309  25.4744377
  12.4741974  19.8601437  27.3062897  13.1130047  19.2029076  27.8962631
  13.1113024  20.7389355  27.2066784  11.4945555  20.1060791  27.7160587
  11.5163069  17.9527073  26.3733234  11.0456753  17.5684242  25.4683762
  10.7423182  18.0997353  27.1265984  12.2314997  17.1830025  26.6634293
  10.1372385  20.8734665  22.9666767  10.3331070  22.1363659  23.0181789
   9.0953426  20.3674088  22.3368778   8.9738512  19.3769932  22.1806278
   8.0278349  21.2138023  21.7099361   8.4396229  22.1969814  21.4821396
   7.5589218  20.5532780  20.4260025   6.7621651  21.1186409  19.9426346
   8.3568411  20.4333038  19.6931801   6.9704471  19.3380508  20.8302402
   6.9949102  18.6496849  20.1615448   6.8595152  21.4428234  22.6347065
   6.6176815  20.6579990  23.5539799   6.0299273  22.4442997  22.3011799
   6.3454189  23.1420345  21.6425972   4.6801939  22.6405869  22.8939590
   4.7260571  22.4941330  23.9731045   4.1736984  24.0865536  22.6636925
   4.1162629  24.2425785  21.5864468   3.1471999  24.1068859  23.0297413
   5.0403090  25.2777615  23.2365952   6.0905790  25.0338669  23.0767326
   4.8409038  26.6571465  22.5464687   3.7900894  26.7933578  22.2908516
   5.5331001  26.6636791  21.7044945   5.1336112  27.5057411  23.1647778
   4.8842945  25.5388241  24.7374611   4.7642484  24.5279045  25.1269951
   5.7613325  25.9669933  25.2228222   3.9622376  26.0924683  24.9146290
   3.6505489  21.5813122  22.5748959   2.7448177  21.5148449  23.3781929
   3.8497679  20.7264118  21.5563641   4.5721126  21.0116158  20.9106255
   3.1353920  19.5437756  21.3570709   2.1014171  19.7486019  21.6346340
   2.8749044  19.2453003  19.8683987   2.0878749  18.4943771  19.7991066
   2.3588450  20.4306412  19.0309391   1.9537828  19.9977131  18.1162872
   1.5448797  20.9414234  19.5453930   3.1310143  21.1645050  18.8000717
   4.1576004  18.6926708  19.4763088   3.8276689  18.0314102  18.8635445
   3.5633843  18.3974266  22.2225914   2.7777555  17.5520229  22.7098274
   4.8784351  18.3206444  22.5317364   5.5278225  19.0331211  22.2304478
   5.4161363  17.4038506  23.5959854   5.0413928  16.3831730  23.5192833
   6.9586349  17.2783222  23.6105938   7.3167577  18.3031101  23.5123196
   7.2998199  16.7702007  24.5125389   7.5362720  16.4787331  22.4652596
   7.4380417  15.4009924  22.5953617   6.9920058  16.6695328  21.5403423
   9.0164051  16.5647697  22.2501488   9.2750454  17.4907608  21.7365875
   9.6071186  16.6354637  23.1634731   9.4569016  15.4278917  21.3520355
   9.0259733  14.5272188  21.7892876   9.0363274  15.5137720  20.3501148
  10.8749056  15.4180489  21.2235470  11.4503698  15.1812201  22.0190678
  11.1113091  14.6458311  20.6170006  11.1173849  16.2454414  20.6975021
   4.8476100  17.8334370  24.8863106   4.5120659  17.0337410  25.7280598
   4.8413939  19.1282692  25.1640053   5.3092470  19.7948303  24.5665855
   4.2402973  19.6558495  26.3990116   4.8374848  19.4052124  27.2757378
   4.2016468  21.1707497  26.2639313   5.2415977  21.4475937  26.0908337
   3.5181699  21.6255245  25.5468960   3.9190164  21.8152466  27.6063538
   4.7790813  21.7100391  28.4760208   2.9202104  22.6610718  27.7523975
   2.2156963  22.6308937  27.0293102   2.8878915  23.1548252  28.6328869
   2.7162285  19.1800995  26.6363640   1.9937412  19.1502190  25.5690269
   2.4252439  18.8299122  27.8538265   3.1707249  18.6980438  28.5223846
   1.2638129  18.0024986  28.0832233   0.9467409  17.4958858  27.1716805
   1.4820330  16.9710808  29.2492409   1.8818665  17.5297794  30.0954609
   0.3314834  16.1180744  29.8117237  -0.0943822  15.6783581  28.9098434
   0.8323941  15.4061680  30.4677601  -0.3630927  16.7600460  30.3535156
   2.5578194  16.0776691  28.8588181   3.3900533  16.5553303  28.8875751
  -0.0403586  18.8028679  28.3311749   0.0166178  19.8673840  28.9257984
  -1.1663381  18.1825638  27.8606415  -1.1439894  17.2710342  27.4262257
  -2.5600595  18.7589035  27.9595165  -2.5707552  19.7935848  28.3021812
  -3.1559627  18.8410931  26.5639744  -2.3945584  19.2652493  25.9094086
  -3.3929448  17.8356018  26.2162285  -4.4630704  19.6149216  26.3943615
  -4.9621501  19.4331093  25.4425392  -5.1803412  19.1655617  27.0811653
  -4.3621144  21.1112232  26.7825737  -3.6943042  21.8665714  26.0161781
  -4.9558539  21.5060139  27.8606319  -3.6006508  17.9478321  28.8472481
  -3.5875416  16.7098198  28.7634506  -4.5864053  18.5542622  29.5321751
  -4.5911574  19.5642452  29.5350857  -5.7287951  18.0338516  30.2546692
  -5.9122243  17.0230541  29.8903294  -5.4682322  17.9170513  31.7908459
  -5.2140565  18.8954353  32.1985931  -6.3537436  17.6760311  32.3789673
  -4.3598433  16.9368286  32.1839638  -3.4708116  17.1052589  31.5762196
  -4.1393347  17.0937042  33.7108154  -5.0644002  17.2119122  34.2750626
  -3.6545877  16.1901245  34.0805016  -3.5015779  17.9594650  33.8892326
  -4.7821088  15.3730154  32.1252823  -3.9962928  14.7373972  32.5334358
  -5.6166816  15.3024731  32.8228569  -4.9715991  15.0328932  31.1071892
  -7.0457897  18.7952805  29.9011364  -7.3451271  19.8387928  30.4944820
  -7.8462315  18.2141514  29.1870632  18.4035301  39.1636238  46.1720276
  18.1243114  38.3442688  46.6924095  17.9452152  40.0334587  46.4031830
  18.0799255  38.9741058  45.2342300  19.7882671  39.4097099  46.2963905
  19.9549942  40.3188820  45.7187157  20.1844597  39.4373093  47.7570801
  19.6528358  40.2378464  48.2714920  19.8998566  38.4640694  48.1569672
  21.7390060  39.5730820  48.0334778  21.7786865  39.7571678  49.1070900
  22.1514664  38.5715752  47.9111443  22.6867809  40.9298553  47.1968842
  21.9746933  42.2993813  48.1308403  22.1727734  43.1949348  47.5419121
  20.8949928  42.1549034  48.1692238  22.4149952  42.5624161  49.0926361
  20.4556313  38.2676163  45.5050011  19.8352013  37.2319450  45.4479332
  21.6251545  38.5666924  44.9307747  21.9652462  39.5147667  45.0055542
  22.4993038  37.5444794  44.1989555  21.7611866  37.0883827  43.5392036
  23.6149025  38.3500328  43.5452003  23.2172737  39.0186157  42.7816620
  24.1791553  38.8330765  44.3429375  24.5754547  37.4316521  42.7145424
  25.3370495  38.0799217  42.2811623  25.0094433  36.5968094  43.2648087
  23.6651726  36.7147369  41.3537445  24.8304501  35.3522377  40.8848381
  24.4427013  34.8214645  40.0153427  25.8142719  35.6950951  40.5644608
  24.9943638  34.6279678  41.6827545  22.8935184  36.4589386  45.2610779
  23.0433941  36.7145119  46.4046822  23.0264206  35.1997795  44.8836021
  22.9425259  35.1114845  43.8809700  23.2259293  33.9847488  45.6213493
  23.2160454  34.2369499  46.6817245  22.1006260  32.9096069  45.3579102
  22.4708710  31.9822769  45.7950363  20.8534374  33.3727455  46.1295052
  20.0313492  32.6572495  46.1109924  21.1966801  33.5077438  47.1552048
  20.5085621  34.3448563  45.7771187  21.7361794  32.6510963  43.8853798
  21.2549706  33.5490227  43.4977379  22.6268406  32.4871140  43.2788086
  20.7344608  31.4371357  43.7388268  19.6900826  31.7351322  43.6461678
  20.9954357  30.8576374  42.8532906  20.9359989  30.7553196  44.5650253
  24.5699711  33.3067932  45.2125282  25.0558395  33.3708382  44.0523529
  25.1239128  32.5352859  46.1435738  24.7030029  32.3188705  47.0358200
  26.3689938  31.8161411  45.8462906  26.3906498  31.5581474  44.7874870
  27.5397663  32.6618538  46.2893791  27.5632782  32.6238747  47.3784637
  28.4221706  32.1288872  45.9352493  27.6169643  34.1849174  45.8497353
  26.6708107  34.7246132  45.8900490  28.3886127  34.6513405  46.4621964
  28.0369186  34.3686409  44.4702072  29.0638351  34.0117073  44.5485687
  27.4356289  33.7311935  43.8219719  27.9337177  35.7337227  43.8778000
  27.6834602  36.4729500  44.5189056  28.1236362  36.2337799  42.6665382
  28.4175777  35.4435730  41.6942101  28.6759529  34.5077705  41.9728127
  28.6448364  35.7950325  40.7750053  27.9822788  37.4877548  42.3970947
  28.2145920  37.7994766  41.4649162  27.8213120  38.1431503  43.1485214
  26.5492954  30.5188656  46.5423203  25.8915348  30.2792530  47.5624619
  27.2427197  29.6155300  45.8331642  27.5843563  29.9307785  44.9365044
  27.7582302  28.3336143  46.2968750  26.9987717  27.7723942  46.8412590
  28.0966740  27.7805748  45.4206810  29.0190792  28.5315723  47.1171303
  29.8624802  29.3651295  46.7400665  28.9868298  27.8655682  48.2538452
  28.1515770  27.3920498  48.5672646  30.0274067  27.7710896  49.2396927
  30.8550491  28.3584213  48.8420067  29.7001820  28.3121929  50.6234016
  29.0414467  27.6027946  51.1243210  31.0452633  28.3957729  51.3831406
  31.5483780  27.4289303  51.3967361  31.6673698  29.1894951  50.9695091
  30.8203335  28.6287861  52.4239159  29.0135841  29.7070065  50.5620155
  29.5510311  30.3506374  49.8656044  28.0085011  29.5081501  50.1900444
  28.9762955  30.3654823  51.8255806  28.2405396  31.1686611  51.7847748
  28.5679035  29.7329388  52.6137466  29.9200630  30.7198009  52.2401428
  30.4022045  26.2632465  49.4194374  29.6945057  25.3975010  49.9013901
  31.6760864  26.0380020  49.1018867  32.1021767  26.8603153  48.6989632
  32.2643700  24.7327576  49.0794373  31.5009918  23.9607086  48.9830399
  33.2590141  24.5877342  47.8736992  33.6860504  25.5636330  47.6427002
  34.0990906  23.9770870  48.2045975  32.5867653  23.9990673  46.6597595
  31.8247337  24.7211533  46.3664970  33.2976990  24.0628071  45.8359833
  31.9624958  22.5517426  46.6738853  30.9261284  22.6967812  46.9788551
  31.8674068  22.1555443  45.6629028  32.6778374  21.7004852  47.5285988
  32.1972771  21.5172749  48.3978462  33.8536148  21.0339947  47.2646217
  34.4500427  21.2061405  46.1755981  35.4152031  20.9085426  46.1740990
  34.0212822  21.7619629  45.4494286  34.3794899  20.2197495  48.1524200
  35.2749672  19.8370075  47.8846016  33.9540482  20.0422726  49.0510864
  33.0986176  24.4209690  50.3320160  33.6126556  25.3522472  51.0255013
  33.3253975  23.0944901  50.4999275  32.9125748  22.4951172  49.7996178
  34.0877419  22.5719624  51.6068993  35.0379639  23.1038971  51.6540947
  33.6330109  22.9156971  52.5359688  34.3814659  21.0272884  51.4557266
  33.5672188  20.3787632  50.7615585  35.3766594  20.5189419  52.1840515
  35.9289169  21.2859879  52.5400810  35.7138519  19.1404152  52.2513504
  34.7646408  18.6169338  52.3656731  36.4868164  18.6575012  51.0071487
  37.5317535  18.9511280  51.1070976  36.4298439  17.5803242  50.8504906
  36.1611176  19.1623287  50.0976639  36.5082817  18.7647839  53.4903603
  37.2074928  19.6186924  54.0690651  36.3934097  17.5647774  53.9817123
  35.9417534  16.8355179  53.4485245  36.9778862  16.9805946  55.1583405
  37.9618568  17.4075794  55.3522339  36.1691895  17.3628330  56.4636269
  36.1588974  18.4526615  56.4800644  34.7599373  16.8358994  56.5734978
  34.1516685  17.0666237  55.6989250  34.8580475  15.7618799  56.7314758
  34.3407288  17.2675304  57.4823837  36.9614449  17.0380917  57.5890388
  36.6747398  17.6149178  58.3008499  37.2550087  15.5063553  54.9921341
  36.7793541  14.8220863  54.0737114  37.9101143  14.8144150  55.9566765
  38.2971115  15.4063988  56.6777077  38.1128464  13.3122311  55.8958321
  37.3260651  12.8197851  55.3243599  39.4970016  12.9165316  55.2873878
  39.5818176  11.8299704  55.2703094  39.5956078  13.3487473  53.8160629
  38.8600464  12.8902397  53.1551323  39.3050385  14.3976812  53.8744316
  40.5928192  13.1708412  53.4135399  40.5741043  13.5365601  55.9809113
  40.7861404  12.9716396  56.7275734  38.0254745  12.6841412  57.3154411
  38.3741798  13.3411608  58.3361511  37.5992050  11.4017572  57.3012848
  37.4036751  11.0068750  56.3924751  37.6627274  10.5850058  58.5213928
  38.0866013  11.1801968  59.3302078  36.2391472  10.1589546  58.9537125
  36.4118919   9.6166029  59.8832932  35.4517593  11.4019680  59.3119392
  35.3328705  11.9084196  58.3540916  34.5266190  11.0962677  59.8005753
  36.0525703  11.9576235  60.0319099  35.4824448   9.1208115  58.1056290
  34.5053062   8.9793110  58.5674553  35.4464531   9.5699673  57.1131248
  36.1009789   8.2233086  58.1039276  38.5487518   9.3594408  58.5117760
  38.7198067   8.7838125  57.4739304  39.0990906   8.9299593  59.6706734
  38.7903175   9.5025778  60.4432449  39.8595047   7.6820073  59.8003578
  40.5146523   7.4447346  58.9621544  40.8268509   7.6690793  60.9547882
  40.2446785   7.8541179  61.8575287  41.1463013   6.6269722  60.9627724
  42.0847092   8.5650740  60.8945808  41.7853203   9.5747280  61.1757660
  42.7806778   8.2018156  61.6507339  42.6946831   8.5131464  59.4751320
  43.2329102   7.4593840  59.0134888  42.5109253   9.5588093  58.8046608
  38.9113083   6.4306893  59.9500542  39.1583023   5.4419575  59.3178444
  37.9448891   6.4856682  60.8177605  37.6190109   7.3486304  61.2290993
  36.9819336   5.3271532  60.9747925  37.3307533   4.3852196  60.5514832
  36.6602097   4.9022617  62.5067368  36.3909721   5.8188543  63.0315895
  35.6833115   4.4208865  62.4614601  37.7319145   4.1933918  63.3019257
  37.9589462   3.2075038  62.8962402  38.5992546   4.8283501  63.1212349
  37.3382416   4.0710063  64.7602921  36.3749962   3.5654097  64.8283386
  38.1088715   3.5312023  65.3106079  37.1209106   5.3557906  65.4280396
  37.9108315   5.9851708  65.4294739  36.1419106   5.6534042  66.2663345
  35.1680679   4.8153768  66.5893784  35.1829491   3.8632939  66.2525864
  34.3959045   5.1829090  67.1267624  36.1767921   6.7982001  66.8489380
  36.5545006   7.5939579  66.3547668  35.6897583   6.9690557  67.7171021
  35.6055870   5.6806355  60.3512306  35.2830734   6.8488712  60.3231087
  34.9800949   4.6764026  59.8104706  35.4197197   3.7710950  59.8956375
  33.6512375   4.7595048  59.2351646  33.5058670   5.7479210  58.7992744
  33.5456657   3.7731073  58.0865555  34.3464966   4.1515503  57.4513016
  33.8566780   2.7821229  58.4171944  32.1611443   3.6952443  57.4814262
  31.3754253   4.6123857  57.7143211  31.8908710   2.7113662  56.7467651
  32.6303329   4.5194969  60.3542137  32.2842026   3.3922725  60.6178398
  32.1426544   5.5500669  61.0037003  32.4197426   6.4856796  60.7430229
  31.2636700   5.5199757  62.1342010  30.5776081   4.6848321  61.9929428
  31.9595413   5.0956149  63.3738556  32.3195190   4.0724401  63.2659912
  33.1344910   5.9624157  63.7233963  33.0071716   7.0449395  63.7286873
  33.6727142   5.6153970  64.6054306  33.8814163   5.7193274  62.9676781
  31.1871643   5.0740438  64.5142746  30.4795856   4.4690638  64.2798996
  30.5951195   6.8645010  62.3318901  31.0239563   7.9383798  61.9511909
  29.4238739   6.8484144  62.8703461  29.0904102   5.9251933  63.1081963
  28.6994095   7.9578481  63.4043694  28.5425663   8.6439285  62.5720253
  27.3205681   7.4931521  63.6971741  26.8041286   7.3762846  62.7444267
  27.3917580   6.5095372  64.1614304  26.6667042   8.4556255  64.6257248
  27.0715580   8.3148584  65.6279144  26.7926121   9.4060841  64.1071930
  25.1811275   8.2449503  64.7557831  24.6485462   7.6798582  65.7582550
  24.3399315   8.7592278  63.9852448  29.4301262   8.6345825  64.5638885
  29.1398964   9.8118486  64.7931061  30.4950390   8.0601854  65.1638870
  30.6989231   7.0960875  64.9424210  31.3948250   8.7687807  66.0857239
  30.8268108   9.4013624  66.7678528  32.1196785   7.6635141  66.8951950
  31.3905220   6.9042368  67.1779099  32.8554916   7.1111250  66.3107758
  32.8507309   8.2440615  68.0736313  33.5551071   9.0229940  67.7817154
  32.0946350   8.6472807  68.7472992  33.6474876   7.0772343  68.6416092
  33.2966766   5.8625879  68.4270706  34.6590347   7.3698726  69.2814713
  32.3292389   9.8381548  65.3305206  32.8384399  10.7674494  65.9260330
  32.4950409   9.6778021  64.0151138  31.9128761   8.9994421  63.5449905
  33.4181328  10.4285297  63.1523323  33.9341927  11.2271872  63.6851883
  34.5066795   9.4609480  62.6847496  33.9936676   8.7546549  62.0320091
  35.1528091  10.0837879  62.0661240  35.4776115   8.8138247  63.6759300
  34.8879776   8.1178484  64.2726288  36.1946526   8.2602482  63.0697060
  36.2635689   9.7603521  64.5437622  36.7222443   9.3351746  65.6668243
  36.5535736  10.9445915  64.1404037  32.8212509  11.1506624  61.9609756
  32.9473763  12.3320503  61.8627510  31.8977337  10.5526390  61.1928482
  31.6321793   9.6005583  61.4005127  31.2696953  11.2071266  60.0247650
  32.0148392  11.5199385  59.2933235  30.4323711  10.1085262  59.2363892
  29.8574715   9.5654631  59.9865074  29.3434315  10.5645523  58.3196907
  29.9731407  10.9939117  57.5404510  28.7073193   9.8028240  57.8688774
  28.7710934  11.4063272  58.7094955  31.4503422   9.1654396  58.6624947
  31.8647594   9.6458120  57.7761536  32.4028664   9.0285616  59.1744118
  30.8664989   7.7789226  58.2884674  30.2804203   7.4594083  59.1501617
  30.2110081   7.9043837  57.4266701  31.6940937   7.0835681  58.1482201
  30.4744492  12.3553581  60.4822044  30.5372276  13.3830929  59.8043747
  29.7104206  12.3130188  61.5315437  29.7815437  11.4680185  62.0801964
  28.8840923  13.4434080  61.8878059  28.5543232  14.0106936  61.0174332
  27.6503849  12.8519411  62.6232147  27.3726578  11.9573793  62.0657845
  27.9469070  12.5021191  63.6120491  26.3398571  13.6878405  62.8585548
  25.9060783  13.8412123  61.8704185  25.4487000  12.9769306  63.7517776
  24.4502068  13.3901577  63.8944359  25.2520752  11.9694872  63.3850403
  25.9203758  12.7886047  64.7162247  26.4641724  15.0483322  63.5860977
  26.9453850  15.8434620  63.0166245  25.4798450  15.3931093  63.9028397
  27.0302696  14.9024611  64.5060730  29.5311737  14.5376654  62.6887550
  29.5241184  15.6329250  62.2666931  30.3891830  14.1753416  63.6363869
  30.6764717  13.2118950  63.7330589  31.1757278  15.1649609  64.3475723
  30.5106373  15.9390821  64.7303085  31.9144669  14.4804058  65.4425049
  31.1943626  14.0236368  66.1214066  32.5591812  13.7159271  65.0088882
  32.8021355  15.4755259  66.2709732  33.3851700  14.8480053  66.9450531
  33.5017967  15.9806290  65.6050415  32.0573425  16.5296726  67.1016617
  30.8686733  16.5073147  67.2289047  32.7595901  17.5008850  67.7103806
  33.7012291  17.6380653  67.3718567  32.2309990  18.2057228  68.2042389
  32.1291885  15.9210863  63.3880463  31.9712753  17.1585369  63.4091263
  32.9395714  15.3168926  62.4794502  33.1469040  14.3308086  62.5483856
  33.8641624  16.0494823  61.6183891  34.5109940  16.7083836  62.1976624
  34.7988663  15.0573053  60.9242020  34.2826385  14.0973015  60.9229774
  34.9952507  15.4488850  59.9261055  36.1905365  14.8002377  61.5748940
  36.7145805  14.0838928  60.9421768  36.7522087  15.7342739  61.5890923
  36.1164436  14.2810488  63.0014763  35.8217201  15.0406361  63.7255363
  35.5215912  13.3724709  63.0949440  37.5539703  13.8841963  63.3348923
  37.9293518  13.1944332  62.5789719  38.2187195  14.7471170  63.2952042
  37.6744995  13.3244495  64.6570816  37.4888611  12.3317547  64.6430893
  38.5909576  13.3919849  65.0761795  37.0849380  13.7811880  65.3381882
  33.1140747  16.8670483  60.5108986  33.4725189  18.0087910  60.2921638
  32.0316620  16.3247681  59.9600945  31.8685265  15.3648214  60.2284012
  31.1207485  17.2262554  59.2183647  31.6627884  17.6304646  58.3634338
  29.9043217  16.4738731  58.6049232  29.3691101  16.1909809  59.5113602
  29.2199688  17.2921371  57.5135880  28.8484230  18.2049904  57.9791527
  29.9406109  17.5402393  56.7343445  28.3879223  16.7062721  57.1230011
  30.4169960  15.2943039  57.9585457  30.3625393  14.6773996  58.6920776
  30.5907822  18.3849888  60.0162506  30.6128407  19.4795017  59.4607506
  30.0137482  18.2209587  61.2310448  29.9920578  17.3442650  61.7320824
  29.4073792  19.3242054  61.9794769  28.6008472  19.6808186  61.3388290
  28.8272476  18.8416557  63.3222771  28.2426205  17.9264431  63.2290154
  29.6561546  18.6147366  63.9927406  27.9573479  19.9217281  63.9923248
  28.5255833  20.8474960  64.0826569  27.0252895  20.1778584  63.4885750
  27.7227192  19.4859142  65.5189514  26.8430977  20.0014095  65.9044800
  27.5291481  18.4143848  65.4694061  28.9741859  19.4872818  66.4618225
  29.8316879  19.1151409  65.9011917  29.2664928  20.4705944  66.8302689
  28.6612320  18.5926666  67.6352768  28.4073277  17.6752987  67.2975388
  29.4928474  18.5058517  68.2018356  27.8118858  18.8821907  68.0988388
  30.3469601  20.5335407  62.1154175  29.9742680  21.6169910  61.7945366
  31.6297741  20.2884769  62.4977646  31.7804241  19.3099766  62.6976204
  32.7499580  21.1906738  62.6069565  32.4926414  22.0050316  63.2842407
  33.9044647  20.3993015  63.2759094  33.4797058  19.9665585  64.1816788
  34.1946449  19.6611652  62.5282135  35.1026649  21.3335304  63.6152802
  35.9336662  20.7757378  64.0470352  35.4786034  21.8195591  62.7149773
  34.6737404  22.3696117  64.6089554  34.2212830  22.1178741  65.7478485
  34.8157310  23.5990524  64.3043137  34.7233543  24.2611141  65.0614471
  35.2403717  23.8093643  63.4123802  33.2354660  21.7747879  61.2200432
  33.6113014  22.9249859  61.2083435  33.0937881  20.9666786  60.1320610
  32.8782730  19.9944134  60.3004494  33.3011208  21.5518799  58.7823982
  34.3085289  21.9674702  58.8051796  33.2361107  20.4648800  57.6938629
  33.9994354  19.7270947  57.9410667  32.2462311  20.0101452  57.7320137
  33.4943810  21.0183487  56.3042831  32.7452545  21.7964268  56.1576347
  34.9330215  21.6077232  56.1146507  35.0152283  21.9030952  55.0686569
  34.9867744  22.4127960  56.8474998  35.6814041  20.8503380  56.3478737
  33.4453011  19.9502583  55.2204094  33.5120697  20.4842815  54.2725334
  34.3340111  19.3193855  55.2376213  32.4231529  19.5771885  55.2847366
  32.3140831  22.7032471  58.5113983  32.6157417  23.7929497  57.9849968
  31.0349064  22.4214287  58.8388748  30.7464294  21.5618191  59.2837944
  29.8426895  23.3375587  58.6214485  29.7899761  23.7508678  57.6142235
  28.5016384  22.5628910  58.8339462  28.4876385  22.1635723  59.8480682
  27.6698341  23.2593918  58.7286377  28.2642517  21.3297119  57.9512520
  29.0919628  20.6376247  58.1062050  26.8662052  20.7128220  58.2604752
  26.4920273  19.9577503  57.5691299  26.9807625  20.1625099  59.1943550
  26.1334438  21.4989376  58.4426346  28.2283516  21.8014526  56.4072380
  27.8482647  20.9408455  55.8567963  27.5987720  22.6875191  56.3258705
  29.2699394  21.9937019  56.1498795  29.8863945  24.5017319  59.5873375
  29.9751949  25.6981392  59.1225510  30.0377331  24.2209492  60.9024391
  30.0400734  23.3027248  61.3231010  30.3006344  25.3063431  61.8370628
  29.3562012  25.8309002  61.9819374  30.6530190  24.6654205  63.2318268
  31.3092766  23.8107185  63.0677872  31.0702724  25.4654350  63.8433647
  29.4670658  24.1334114  64.0811539  28.9153385  23.3981609  63.4954033
  29.8855247  23.6346397  64.9553528  28.4578285  25.1914616  64.5590210
  27.5072784  24.7898655  65.3573151  28.6635590  26.4019909  64.3970642
  31.4812355  26.2874184  61.4791451  31.4453678  27.5002613  61.7845459
  32.5338173  25.7042694  60.8920631  32.6930962  24.7261219  60.6972351
  33.6119728  26.5344372  60.2964020  33.7622795  27.1855450  61.1575470
  34.9022026  25.7233448  60.1546097  34.9589424  25.0287189  60.9926872
  34.7881927  25.0252171  59.3253212  36.1215591  26.6520996  60.0380173
  37.0151863  26.0444450  59.8955803  36.0461044  27.1627102  59.0779724
  36.4030533  27.7883244  61.0343742  37.2824249  28.3798771  60.7796707
  35.5509872  28.4675846  61.0606651  36.7018661  27.2497673  62.4556274
  35.9359245  26.5460377  62.7815056  37.7128410  26.8423996  62.4647636
  36.8277321  28.4803429  63.2829514  35.9425087  28.9165497  63.4979095
  37.2195358  28.1497669  64.1531906  37.5608292  29.0992203  62.9672585
  33.2157936  27.3625469  59.0109749  33.3674736  28.5825691  59.0237503
  32.5102005  26.7123547  58.0588799  32.3498573  25.7195721  58.1525497
  31.8651333  27.4745693  56.9584999  32.6682205  27.9510307  56.3962402
  31.0194855  26.4777374  56.0949478  30.5296059  25.7629356  56.7561417
  29.9369526  27.1855259  55.2266273  29.4662247  26.4987946  54.5231247
  29.1701736  27.6345139  55.8579483  30.2741928  28.0429840  54.6442680
  31.9688473  25.6871986  55.1649475  32.3473740  26.3470078  54.3842621
  32.8166199  25.3578110  55.7656860  31.3568554  24.3705158  54.5867996
  31.1245861  23.7017765  55.4156265  30.3932915  24.5424309  54.1071243
  32.1855850  23.9888802  53.9904213  31.0319557  28.6264191  57.4643135
  31.2277565  29.7355003  56.9665604  30.2073402  28.4205971  58.4913101
  30.2138443  27.4904022  58.8847504  29.1633835  29.3974571  58.9106979
  28.6478348  29.8295918  58.0530434  28.0825596  28.5564480  59.6813049
  28.5899830  28.0818977  60.5212021  27.0144100  29.4892292  60.3845291
  27.5442295  30.1592979  61.0615845  26.4720955  30.0581379  59.6293221
  26.3430634  28.9154396  61.0234032  27.3729362  27.6108341  58.7175674
  26.6961575  28.1484966  58.0534935  28.1231327  27.1354809  58.0856285
  26.4966393  26.5251045  59.3228073  25.7049789  26.9745502  59.9222908
  26.0592842  25.9465523  58.5091133  27.1266022  26.0070248  60.0458832
  29.7620201  30.5191460  59.6491089  29.3655777  31.6459007  59.4349442
  30.7413502  30.2307167  60.4634628  31.0122395  29.2623901  60.5586624
  31.5791245  31.2905369  61.1818542  30.9051132  31.9592838  61.7171898
  32.5223999  30.5404243  62.1388969  31.8972912  30.1392860  62.9366608
  33.1394043  29.8097954  61.6158409  33.6053734  31.4356956  62.8167343
  34.3434448  31.7179642  62.0659485  33.1250610  32.3245468  63.2258110
  34.2508469  30.7005291  63.9620209  34.4081039  29.4862232  63.8877678
  34.8860245  31.3631477  64.8038940  32.2626228  32.1629486  60.0673752
  32.0321236  33.3955116  59.9060974  33.2023201  31.5282497  59.3592072
  33.3021622  30.5452347  59.5685234  34.1021805  32.1353722  58.3782158
  34.8454819  32.7650375  58.8672180  34.9255600  31.0729828  57.6539612
  34.2558212  30.2185841  57.5562363  35.2004204  31.4559040  56.6711426
  36.1415482  30.6480618  58.5249825  35.9054718  30.3596764  59.5492859
  36.5674210  29.7560825  58.0655212  37.2764893  31.6460133  58.6078339
  37.2397652  32.5631676  59.4453430  38.3248138  31.4983139  57.9270973
  33.3611641  32.9813766  57.3326263  33.8781242  34.0077095  56.7690010
  32.1512413  32.6296043  57.0202866  31.8603191  31.7824478  57.4869652
  31.2077732  33.2308502  55.9909058  31.7700157  33.8929253  55.3323936
  30.7597027  32.2151566  54.9166756  30.1508007  31.4091759  55.3262291
  30.1794586  32.6746368  54.1164894  31.9257240  31.7725983  54.0560684
  32.5452957  32.4918900  53.2667084  32.3561592  30.5516148  54.3550491
  33.0207748  30.0099659  53.8211823  31.9651070  30.3540688  55.2650795
  30.0834846  34.1431694  56.5851135  29.2074795  34.6020050  55.9194450
  30.0889301  34.3836479  57.9481812  30.8536320  34.0787125  58.5332870
  29.1586514  35.3346558  58.6745453  29.3932953  35.1308746  59.7192993
  29.4778481  36.8668900  58.4120102  29.2373981  37.1448288  57.3858337
  28.8449039  37.4466782  59.0838242  30.9539146  37.2844543  58.5778046
  31.6924324  38.1899643  57.8740768  31.2518902  38.8508110  57.2501373
  32.9938698  38.1820946  58.2634163  33.7565727  38.9094124  58.0274124
  33.1169281  37.1591225  59.1492500  33.9430923  36.9481697  59.6905899
  31.8582268  36.5810585  59.3470459  31.6707897  35.7047119  59.9497795
  27.6463013  34.9907646  58.4537697  26.7189713  35.8567085  58.3859100
  27.4391575  33.6883125  58.3364830  28.2014370  33.0485992  58.5091019
  26.1775913  33.1553421  57.7424088  25.9192944  33.8459854  56.9396706
  26.5630665  31.8189869  57.0961838  26.9230709  31.2057590  57.9222870
  25.4934063  31.1321487  56.3043442  25.9895802  30.3124714  55.7846909
  24.8298817  30.5790539  56.9691200  24.9211311  31.8024216  55.6629868
  27.6897011  31.9989433  56.2464371  27.3564949  32.4146423  55.4478340
  25.0399361  33.0619240  58.7036934  25.2173615  32.4054832  59.7670097
  23.8766422  33.6147308  58.3823318  23.8550262  34.1806107  57.5460205
  22.6660976  33.4186172  59.2524643  22.9833946  33.1610222  60.2629433
  21.8461227  34.7565842  59.3418732  21.6929722  35.1624184  58.3418999
  20.8394432  34.5284996  59.6921272  22.3455067  35.7433472  60.4015770
  21.6327133  36.5517807  60.5642548  22.4150658  35.3063812  61.3977318
  23.6724606  36.4126434  59.9125938  24.5464249  35.7612839  59.9161797
  23.6837387  36.8054924  58.8959122  23.9602089  37.7319908  60.6856613
  24.8249969  38.1444664  60.1659431  23.1047554  38.4013443  60.5947685
  24.2666988  37.5335541  62.1209183  25.1950359  37.1378212  62.1619606
  24.2803860  38.4297447  62.5864944  23.5421448  36.9498978  62.5139427
  21.6715412  32.3647079  58.5679359  21.5515995  32.4442291  57.3496933
  20.9770641  31.4983635  59.3345184  21.0056839  31.3468246  60.7727356
  20.7293854  32.2503166  61.3162994  21.9676876  30.8839397  60.9927063
  19.8879509  30.3304501  61.0652428  19.0047798  30.9019985  61.3506241
  20.1888332  29.6589108  61.8693581  19.6483402  29.5100212  59.7944984
  18.5991058  29.2364025  59.6833954  20.1804333  28.5600605  59.8450241
  20.2467270  30.3718758  58.7161026  20.8908138  29.7311325  58.1138496
  19.1665745  30.7241192  57.5866737  18.9260483  29.9605103  56.6420670
  18.4716778  31.8015976  57.8770828  18.6274605  32.2910461  58.7467194
  17.3851566  32.3212433  57.0041542  16.6731625  31.5258961  56.7837257
  16.6150360  33.5274887  57.5922661  17.1095963  34.4481888  57.9018173
  15.8901920  33.8196983  56.8324509  15.8239698  33.2362022  58.8768272
  15.1875868  34.0837708  59.1312790  15.1472998  32.4060860  58.6740265
  16.5639858  32.7948074  60.1044655  16.1454315  31.8672447  60.7955894
  17.5695992  33.4887085  60.4634018  17.8839149  32.7025185  55.5952759
  17.1011715  32.5696793  54.6693687  19.1675110  33.0988388  55.4634895
  19.7161789  33.0032005  56.3060532  19.7837830  33.3963013  54.1413803
  19.1092243  33.9935532  53.5278969  21.1394672  34.0918083  54.3753891
  21.6835289  33.5655556  55.1597061  21.6932621  34.0123100  53.4399223
  20.9597244  35.5792274  54.8269348  21.7359047  36.2369690  55.5129318
  19.9717712  36.2134590  54.3487892  20.1011105  32.1478348  53.1990280
  20.4825478  32.4140320  52.0643845  19.8087902  30.9775677  53.7021255
  19.4053497  30.9413624  54.6273422  20.0321026  29.7228050  52.9997787
  20.9589844  29.8424282  52.4388161  20.2963505  28.5307789  53.9649620
  19.3809280  28.3185291  54.5172768  20.6600933  27.2301540  53.1836739
  20.8353729  26.3981075  53.8656387  19.7647438  26.9623470  52.6226616
  21.5451469  27.4790802  52.5981712  21.4369736  28.8295879  54.8749771
  22.3961258  28.7513199  54.3631248  21.4141235  29.7494164  55.4593506
  21.4319820  28.0690880  55.6558189  18.8883457  29.5115833  52.0187416
  17.6977177  29.6343098  52.3004990  19.3273659  29.1907158  50.7860603
  20.3276367  29.1466141  50.6533470  18.5098934  28.6153984  49.7181244
  17.5532627  29.1372623  49.6933594  19.2467842  28.7253418  48.3131218
  20.2248669  28.2654457  48.4543724  18.4727421  27.9682655  47.1327744
  18.7123413  28.4495506  46.1845818  18.8469791  26.9446297  47.1474113
  17.3929310  28.0462074  47.2594070  19.5669308  30.1451740  48.0148277
  20.3170471  30.4555664  48.7422142  20.0825806  30.2292919  47.0582047
  18.6900959  30.7834034  48.1240196  18.3490658  27.1285000  50.0187187
  17.2161713  26.6435184  50.1792641  19.4132099  26.3276920  50.0365067
  20.2983341  26.7871075  49.8765335  19.3954849  24.8674641  50.4258995
  18.7959118  24.6999550  51.3206367  18.7616787  23.9941330  49.3749962
  18.6306210  22.9788704  49.7493896  17.7546406  24.3190308  49.1134300
  19.5182934  23.8700180  48.0819664  20.1303711  24.7553997  47.9100456
  20.2488823  23.0639954  48.1503105  18.6104851  23.8582478  46.8588409
  17.6735191  24.6557655  46.7393341  18.8056316  23.0189190  45.9163818
  19.5462093  22.3339958  45.9667053  18.2413120  23.0467167  45.0792007
  20.7969856  24.4572620  50.9236450  21.7197666  25.2749348  50.7919044
  21.0304203  23.2120056  51.3555717  20.2747536  22.5627327  51.5214653
  22.2915878  22.5361958  51.5631256  23.0609303  23.1182842  51.0557938
  22.6513538  22.6179066  52.9991875  22.3502998  23.5584240  53.4605904
  22.0838261  21.7926178  53.4291992  24.1916046  22.3281803  53.2243729
  24.5093098  21.4555149  52.6537437  24.6811409  23.2679596  52.9688721
  24.6452274  21.9470406  55.0349846  24.1130791  23.4700718  55.8157005
  24.4229145  24.2310123  55.0994034  23.0357208  23.4119244  55.9706841
  24.6339512  23.6541691  56.7553291  22.4133110  21.1718807  50.9245377
  21.5018139  20.3837490  50.8220825  23.6079731  20.8504086  50.4447632
  24.3692265  21.4934940  50.6091919  23.9778690  19.6588593  49.6999664
  23.2417374  18.9006996  49.9672012  23.9273758  19.9723377  48.2045593
  22.8454914  20.0814552  48.1289215  24.3729401  20.9243889  47.9161491
  24.5741844  18.8303585  47.3555908  25.6251678  18.6484299  47.5801697
  23.7125473  17.5338669  47.3846054  22.7387199  17.6682758  46.9137535
  24.1380711  16.7615948  46.7438049  23.7074623  17.0581856  48.3653221
  24.4808197  19.2919941  45.9003868  25.1210041  20.1509514  45.6992226
  24.7749004  18.4435005  45.2825851  23.4441681  19.4522629  45.6041336
  25.2564049  19.0065403  50.1875610  26.2727089  19.7183952  50.2495995
  25.3088074  17.7120438  50.5038109  24.4802246  17.1388779  50.4328690
  26.4357891  16.9924011  51.0225410  27.3135033  17.6355133  51.0867538
  26.1692257  16.7936268  52.5086365  25.4038792  16.0444469  52.7113037
  27.0953445  16.2768631  52.7603493  25.8548450  18.0509224  53.4149971
  26.2237186  18.9813805  52.9833870  24.3400841  18.1774464  53.6621590
  24.2228661  18.6105251  54.6555405  23.9152679  18.8517494  52.9185600
  23.8271694  17.2232018  53.5420036  26.5958748  17.8849468  54.8171349
  26.4181461  16.8796825  55.1991806  27.6842709  17.8430119  54.7754288
  26.3050404  18.6174946  55.5700531  26.7768173  15.7280970  50.2314301
  25.8975677  15.1761026  49.5517464  28.0185776  15.2495985  50.3616104
  28.8169136  15.7239819  50.7587471  28.4141960  14.0365314  49.6481133
  27.5421581  13.3826036  49.6426125  28.8569546  14.3976631  48.1935349
  29.0202103  13.5315256  47.5522423  28.0224323  14.9898386  47.8180275
  29.9704399  15.3231421  48.1307335  30.4183884  15.3178988  47.2816620
  29.5512714  13.3006144  50.3572159  30.2619858  13.8663826  51.1708946
  29.8733044  12.0856791  50.0216980  29.2695274  11.6273031  49.3542786
  31.0031490  11.3556995  50.5521965  31.8529015  12.0234203  50.6942177
  30.6865406  10.6533823  51.8797951  29.8947849  11.2230349  52.3663292
  30.2681675   9.6900434  51.5881691  31.5071201  10.7268343  52.5934868
  31.4822693  10.3098726  49.5126038  30.7052364   9.9079256  48.6287155
  32.7498627   9.8497057  49.6260643  33.3485641  10.0548286  50.4132004
  33.2964096   8.8621244  48.7305183  33.0490150   9.1531105  47.7096252
  34.8702850   8.9217901  48.8434219  35.3120689   8.1603527  48.2006607
  35.6882248  10.1965647  48.4454308  35.5881042  10.2790127  47.3631744
  35.1098366  11.0148821  48.8742981  36.7232323  10.0696554  48.7628517
  35.3842812   8.5646067  50.0928001  35.5939445   7.6377115  49.9567566
  32.7960091   7.4386711  49.0855675  32.1970444   7.2437901  50.1329689
  33.0726585   6.4255962  48.2810707  33.7813683   6.4761186  47.0140877
  34.8618965   6.4944830  47.1562996  33.4635468   7.3449168  46.4376526
  33.2637062   5.2889171  46.2315140  33.8877869   4.9741216  45.3951340
  32.3385544   5.5805545  45.7343826  33.0635796   4.2880521  47.2625580
  34.0470161   3.9033084  47.5325966  32.4076653   3.4832127  46.9307289
  32.5137939   5.0749903  48.4393044  31.4239578   5.0627990  48.4248047
  32.9356232   4.3932076  49.7263107  32.3107643   3.3767071  50.1599960
  34.0324059   4.8827853  50.3186111  34.4764137   5.6894612  49.9036064
  34.7042923   4.2232122  51.4940758  34.9009972   3.1974657  51.1822205
  36.0325661   4.8951793  51.7279854  35.8910255   5.7451844  52.3954849
  36.6325760   4.1277456  52.2169991  36.8232307   5.2423453  50.4953194
  37.9193497   4.7111454  50.2746162  36.4974213   6.2061486  49.8045616
  33.8021202   4.2666607  52.7556305  34.0051270   3.4430602  53.6360512
  32.8509140   5.2366538  52.9267998  32.6811295   5.8363566  52.1320496
  32.1480637   5.5076151  54.2308159  32.5707512   4.8339849  54.9762421
  32.3792534   6.9559164  54.6293716  31.8694973   7.5064635  53.8387108
  31.9154530   7.1486983  55.5967560  33.8251457   7.4306879  54.6997986
  34.1925430   7.0997238  53.7284164  33.9365082   8.9070063  54.8279572
  34.9599762   9.1541290  55.1099892  33.6865845   9.4624767  53.9240227
  33.2767944   9.2582331  55.6213760  34.5745468   6.7102790  55.8667336
  34.3267250   7.0462332  56.8736115  34.2464485   5.6728358  55.8022041
  35.6349144   6.8748145  55.6752930  30.6606026   5.2267051  54.1100273
  29.9643803   5.6094770  53.1783943  30.1605873   4.5002947  55.1360054
  30.7428780   4.3626914  55.9497032  28.8795509   3.7511315  55.0977440
  28.2241039   4.1084146  54.3034897  29.1152687   2.2086673  54.8362617
  29.5176945   1.9197440  55.8071785  28.1265030   1.7684700  54.7071266
  30.0184231   1.8818322  53.6948586  29.5874043   1.8474995  52.4062576
  28.6691170   2.1343470  52.0987396  30.6048965   1.4116052  51.6447449
  30.5949268   1.1158767  50.6060715  31.6549015   1.0742570  52.4518890
  32.5654297   0.7493144  52.1595650  31.3114243   1.3913505  53.7763100
  31.8803883   1.1904593  54.6720352  28.1071854   3.8808882  56.4293365
  26.9629707   3.4030707  56.5773659  28.6689301   4.4080281  57.4817810
  29.6194859   4.7373180  57.3917046  28.0051041   4.2930632  58.8033333
  27.8297024   3.2326992  58.9849129  29.0166111   4.6912146  59.8044205
  29.9074383   4.0776772  59.6699181  29.2351036   5.7541375  59.9071655
  28.7466240   4.4508834  60.8327446  26.7354584   5.1091704  59.0366173
  25.7895012   4.6743288  59.6304855  26.7105484   6.3485055  58.5611153
  27.4896412   6.6689739  58.0039635  25.5517673   7.2823396  58.6788025
  24.6051254   6.7550888  58.5605965  25.5962296   7.8642411  60.0660858
  25.8384628   7.0925536  60.7967834  26.7533970   8.9189253  60.2936325
  26.5942345   9.6821098  59.5318489  26.8083401   9.3171511  61.3067970
  27.6799335   8.4054823  60.0367126  24.2951717   8.5371399  60.4625854
  24.3880367   8.8852987  61.4913063  24.2061882   9.4660664  59.8993111
  23.4705086   7.8524332  60.2645798  25.7126694   8.2905340  57.5864410
  26.8138371   8.4467010  56.9808006  24.6444206   8.9453697  57.1640015
  23.7780075   8.8286104  57.6697617  24.7526817  10.1031942  56.2522469
  25.3311176   9.8490391  55.3640366  23.3853035  10.4401178  55.7316017
  22.7217827  10.7448673  56.5409050  23.4150047  11.2260256  54.9769020
  22.6612854   9.2734537  55.0765228  21.8133106   8.3598270  55.7551346
  21.6349850   8.4661703  56.8149872  21.0507126   7.3837152  55.0700150
  20.4313622   6.7206917  55.6558533  21.1633987   7.1528363  53.6973610
  20.5969257   6.3510742  53.2471542  22.0001678   8.0513220  53.0391769
  22.2029057   7.8651114  51.9948463  22.6850891   9.0859385  53.6812859
  23.2630100   9.7655754  53.0725975  25.3783264  11.3394184  56.9314117
  24.8931103  11.7109728  57.9757118  26.4332943  11.9886065  56.3510666
  26.9169884  11.7819357  55.0176926  26.2833176  12.3804302  54.3631935
  26.9324284  10.7255516  54.7495232  28.3328362  12.4085779  55.0361328
  28.6884632  12.7048588  54.0492973  28.9589157  11.6041880  55.4222412
  28.2636223  13.5358515  56.0573845  28.1375198  14.4730377  55.5152779
  29.1935329  13.5727348  56.6248398  27.0821228  13.2241335  56.9231758
  27.5120106  13.1724682  57.9234924  26.0118961  14.3639421  56.9498138
  26.0977707  15.3096294  57.7361450  24.9681797  14.2980852  56.1095848
  24.9549103  13.4538832  55.5552864  23.7977524  15.1768646  56.1464691
  24.0840225  16.1906242  55.8664017  22.7644329  14.6599522  55.1612511
  22.5936813  13.6114216  55.4052353  21.7859306  15.1154947  55.3132820
  23.0908909  14.7461691  54.1248665  23.1499615  15.2850723  57.5387039
  22.3588295  16.1436539  57.7364731  23.3505211  14.2607889  58.4311905
  24.0158634  13.5473270  58.1696701  22.7470913  14.2369785  59.8103523
  21.6974163  14.4089909  59.5722466  22.9335270  12.8154116  60.4097137
  22.5993919  12.1340294  59.6273003  23.9505291  12.5455122  60.6942482
  22.0688229  12.5467587  61.6068878  22.2636890  13.3261347  62.3435669
  21.0101719  12.6401606  61.3647270  22.2949829  11.1032591  62.2279892
  22.0107307  10.3081417  61.5387230  23.3619347  11.0081778  62.4296684
  21.5749931  11.2040443  63.5392952  21.9335308  12.0385313  64.1419449
  20.5118275  11.2975073  63.3178368  21.8508244  10.0053673  64.3183365
  21.2091427   9.2777205  64.0374908  22.7397976   9.6064148  64.0525055
  21.7622967  10.0752840  65.3220139  23.2686100  15.3647594  60.7466736
  22.6128483  15.7659521  61.7154922  24.4264450  15.9706755  60.4071770
  24.8999672  15.6208372  59.5865135  25.1221180  17.0514183  61.0694008
  25.1861401  16.8353043  62.1358414  26.5645313  17.0465755  60.5243111
  26.8717976  16.0057888  60.4221001  26.5383492  17.4433842  59.5094414
  27.2196465  17.6499329  61.1527100  24.5203323  18.4559956  61.0486259
  24.5268192  19.1808949  62.0078773  23.7602215  18.7281647  59.9678688
  23.6326675  18.0788689  59.2048225  22.8670292  19.9224777  59.9104538
  23.4779587  20.7807617  60.1901245  22.2760715  20.1175690  58.5210876
  21.4756298  19.3856735  58.4128227  21.7832050  21.5451202  58.2851944
  22.5165710  22.2614536  58.6555176  21.6122169  21.7785511  57.2343025
  20.8578911  21.6237240  58.8559036  23.2544422  19.8963070  57.3162422
  22.7710495  20.0815239  56.3570099  24.1796932  20.4724388  57.3072128
  23.6245575  18.8829575  57.1605911  21.6626415  19.9361286  60.8586617
  21.4405441  21.0602398  61.3796387  21.1644917  18.8184566  61.3321609
  21.4919510  17.9565372  60.9198914  20.2728138  18.7857361  62.5136566
  19.6664658  19.6806641  62.3738480  19.4636898  17.5144196  62.3892212
  19.2114601  17.2875690  61.3533516  20.1211586  16.6652393  62.5755692
  18.1116581  17.6523991  63.1093521  18.2956448  17.1664276  64.0675201
  17.8060684  18.6801815  63.3052521  17.0694065  16.9384460  62.2906723
  17.3622227  15.9322033  61.9909439  16.2301064  16.8518066  62.9807205
  16.5690060  17.7989464  61.2053871  17.1924419  17.9621105  60.4276962
  15.5089884  18.6727180  61.2056808  14.6121759  18.8386021  62.1922836
  14.7453203  18.4413872  63.1113052  13.7613001  19.3575974  62.0287170
  15.6079512  19.5429497  60.1869049  14.9432573  20.3034000  60.1848984
  16.2178268  19.3884487  59.3967896  20.9273930  19.0407639  63.9025002
  20.1938629  19.2375927  64.8454514  22.2187290  19.2076912  64.0661163
  22.8404217  19.0723763  63.2817154  22.8406124  19.8300114  65.2380981
  22.3047619  19.5311508  66.1390152  24.2099819  19.1622410  65.4910660
  24.8735180  19.4635830  64.6805038  24.6640110  19.5312309  66.4107437
  24.2275200  17.6472740  65.5505829  23.9966984  17.2263470  64.5719910
  25.1829758  17.2065849  65.8351746  23.2980633  17.1874771  66.7049332
  23.3186016  17.6226616  67.8308487  22.5050011  16.2344685  66.3904648
  22.9838314  21.3291969  65.3328247  22.9489441  21.9168415  66.4221954
  23.0779762  22.0347862  64.2173233  22.9871254  21.4813271  63.3773651
  23.1788387  23.5102730  64.1131058  24.1174469  23.7640362  64.6057739
  23.2256031  23.8971291  62.6179390  22.3054104  23.4941254  62.1949387
  23.1973019  24.9555359  62.3589516  24.4971561  23.3440685  61.9190331
  24.5105667  22.2711754  61.7271500  24.6104126  24.0476303  60.5531960
  24.6000614  25.1225491  60.7335854  25.4596462  23.7748661  59.9266968
  23.7388020  23.7997169  59.9474449  25.8767147  23.5003319  62.5539055
  25.9820576  24.5110950  62.9480629  25.8517532  22.7643967  63.3575706
  26.6715393  23.4243565  61.8118896  21.9931870  24.3475552  64.7531586
  20.8285637  23.9757252  64.6239624  22.3586369  25.3827477  65.4661865
  23.3386192  25.6257381  65.4924545  21.4061928  26.1284275  66.3219223
  20.8011608  25.4468117  66.9197845  22.2213497  27.0987053  67.1919937
  22.9196930  26.4854774  67.7615280  22.8015118  27.7759037  66.5651550
  21.4057178  27.8049145  68.0828094  21.6749649  28.7254982  68.0424194
  20.5206051  26.9611835  65.3538055  20.9951115  28.0041790  64.8931503
  19.2261143  26.7284565  65.3261871  18.8158627  26.1650009  66.0571518
  18.1750202  27.4493446  64.5107956  17.3045826  27.7374477  65.1002350
  18.5144958  28.4680767  64.3235779  17.8240643  26.8840885  63.1323738
  16.9236984  27.3445187  62.4349709  18.6281204  25.9699993  62.5897102
  19.3736649  25.5517311  63.1275902  18.5839443  25.5798588  61.1481133
  18.3541737  26.4954739  60.6031761  19.9613323  25.0944138  60.6057053
  20.2328472  24.1765079  61.1270752  19.7852192  24.8338165  59.5620689
  21.0703831  26.0581741  60.5898170  21.3754215  26.9009228  61.5920868
  20.9400196  26.8297386  62.5778656  22.4275417  27.7733593  61.2130051
  22.8594131  28.4254284  61.8520622  22.7167282  27.5321941  59.8880272
  23.5277100  28.2649708  59.0439301  23.9782372  29.1799965  59.3991089
  23.6106205  27.9021988  57.6871758  24.1963730  28.4190693  56.9414253
  23.0663757  26.6988029  57.2769165  23.3733101  26.2858295  56.3273659
  22.1644535  26.0055408  58.1123505  21.8059769  25.0180855  57.8616982
  21.9168530  26.4274826  59.4125786  17.4835110  24.5343189  60.8047943
  17.5847549  23.7754021  59.8220482  16.5201359  24.1970062  61.7241440
  16.6378937  24.5642529  62.6576118  15.6843195  23.0086555  61.6471558
  16.3884258  22.1780739  61.5973663  14.8900146  22.7526875  62.9431114
  14.6596708  23.6860981  63.4567108  13.9596539  22.2113876  62.7712669
  15.6707182  21.9596367  64.0018463  14.9129839  21.5734539  64.6836090
  16.2084732  21.1212997  63.5590057  16.6509857  22.9332542  64.7876434
  16.5161438  24.1322327  64.7412796  17.5625286  22.5136642  65.5806808
  17.6447506  21.5240593  65.7651367  18.3674183  23.0254269  65.9128723
  14.7536926  22.9384918  60.4407196  14.1103106  21.9146862  60.2458267
  14.5888147  24.0823364  59.6867027  14.9237318  25.0015907  59.9375076
  13.6816931  24.2139435  58.5848045  13.3128471  23.2241058  58.3159637
  12.5267725  25.1499767  58.9700127  13.0658970  26.0514622  59.2611732
  11.8939772  25.2686481  58.0904770  11.6197834  24.7642288  60.1700974
  10.5505505  23.8577423  59.9171219  10.4475908  23.3981209  58.9452438
   9.7355318  23.4276962  61.0204887   9.0083447  22.6375256  60.9054756
   9.8548717  24.1044197  62.2659302   8.9212275  23.9212227  63.2976303
   8.2515993  23.3470592  62.9187698  10.9830933  24.9249134  62.5212593
  11.1130915  25.3511467  63.5050430  11.8565855  25.1566982  61.4638367
  12.7235861  25.7933598  61.5606499  14.4738865  24.6683311  57.2680130
  13.8823471  24.9892616  56.2803917  15.7742853  24.6778584  57.2701797
  16.2838955  24.4353771  58.1077957  16.5374966  24.5728340  55.9762878
  16.1249752  25.3696671  55.3574295  18.0436459  24.8661385  56.3098145
  18.3756924  24.1005135  57.0109978  18.9413967  24.6903534  55.0192871
  19.9818039  24.9704323  55.1842384  19.0038223  23.6431293  54.7234383
  18.5970516  25.2711124  54.1635742  18.3761730  26.1930504  56.9820976
  17.9479523  26.9943333  56.3798676  17.9247932  26.1865463  57.9742241
  19.4579926  26.2789001  57.0841217  16.2935085  23.2322655  55.3499374
  16.1818924  22.2559681  56.0552139  16.1790142  23.0781746  54.0281868
  15.7520475  24.1304893  53.0989761  16.4821739  24.9361858  53.0223618
  14.7688465  24.5249882  53.3554649  15.7170649  23.4683018  51.6897507
  16.6827507  23.5941448  51.2001457  14.9101954  23.9226990  51.1147881
  15.4672041  22.0359879  51.9763489  15.8978367  21.4266682  51.1817513
  14.3931923  21.8643475  52.0480270  16.0924988  21.7685337  53.3797150
  15.5611095  21.0328846  53.9834862  17.5667591  21.3978291  53.1742058
  18.4033833  22.1894360  52.8071938  17.8163338  20.1384583  53.4306831
  17.0454273  19.5456161  53.7033386  19.0711575  19.4581661  53.3716125
  19.7610893  20.2600117  53.1086693  19.5708408  19.0773258  54.7787209
  18.8836308  18.3250771  55.1659737  20.9353046  18.3934593  54.7309074
  21.7088203  19.0771980  54.3812294  21.2244263  18.0894165  55.7369232
  20.8881340  17.4668827  54.1587791  19.6219749  20.1918945  55.9050217
  20.2989712  20.9669991  55.5458679  18.5855541  20.4601555  56.1098785
  20.0461025  19.7813606  56.8213615  18.9644356  18.2566261  52.3912926
  17.9386559  17.5857430  52.3326530  20.0125790  18.0364819  51.4887085
  20.7832489  18.6892967  51.4882240  20.0705891  16.9241314  50.4730797
  19.2596226  16.2026958  50.5728951  19.8615017  17.4779015  49.0231781
  20.3529243  16.7750664  48.3504066  18.3418446  17.5812416  48.6624069
  18.2540932  17.9681587  47.6471825  17.8695107  16.6040821  48.7632141
  17.8429604  18.2763615  49.3376999  20.5808220  18.6911678  48.8672562
  20.8658237  19.0484428  49.7114906  21.4443302  16.1954880  50.6009598
  22.3922310  16.8730850  51.0789223  21.6010475  14.9558268  50.0226898
  20.8080502  14.6008844  49.5076447  22.7013416  14.0334358  50.0602036
  23.5625515  14.6201210  50.3799171  22.4340858  12.9770298  51.1365547
  21.9574413  13.3725004  52.0335007  21.7636261  12.2368002  50.6999283
  23.9703789  12.1705761  51.6390610  23.7001114  11.0478067  50.9673157
  22.9628181  13.4527359  48.7441216  22.0055084  12.9757690  48.1156769
  24.2556515  13.2912655  48.3611984  24.9184437  13.6220322  49.0477829
  24.6692390  12.5317554  47.1545982  23.8842163  11.8493719  46.8287239
  24.8232384  13.4516592  45.9545250  24.9068680  12.8341112  45.0602417
  23.8839569  13.9567490  45.7292709  25.9577904  14.4942846  45.9687653
  25.9210567  15.0896769  46.8810501  26.9069824  13.9789133  46.1154938
  26.0333748  15.6897707  44.5998039  27.7434597  16.2003021  44.6289330
  27.9125195  16.9272614  45.4233170  28.4516792  15.4002151  44.8443031
  28.0631981  16.7659397  43.7537575  25.9400654  11.6962519  47.3862610
  26.6636791  11.8651457  48.3399544  26.1781082  10.6487522  46.6204109
  25.5159092  10.4508514  45.8839149  27.4732132  10.0888977  46.4401360
  27.9288521  10.0041409  47.4267006  27.3208179   8.6988506  45.8135414
  26.4673595   8.1243277  46.1735840  26.9573669   8.8415117  44.7958717
  28.5618267   7.7864118  45.9132576  28.6061573   7.1337137  45.0414085
  29.4557915   8.4077358  45.9669724  28.6531315   6.9296031  47.1497307
  28.3008785   5.7763600  47.1215858  29.1348629   7.3910275  48.2523079
  29.5427666   8.3143263  48.2170677  29.2532120   6.7792602  49.0471878
  28.3659992  10.9181156  45.5209541  27.9704094  11.3447638  44.4559975
  29.6816235  11.0453157  45.9043274  29.9482994  10.7626190  46.8365631
  30.7399559  11.6640415  45.0714073  30.3195362  12.5194101  44.5425453
  31.7467365  12.2073011  46.1015625  31.2514706  12.5948696  46.9918442
  32.4758720  11.5348234  46.5534859  32.6550140  13.3474207  45.5124893
  33.5352135  13.4344339  46.1494980  33.0177116  13.1884117  44.4969749
  31.9682503  14.7489357  45.4080544  32.5779228  15.7488327  44.9560699
  30.8248253  14.8931665  45.9197578  31.3768158  10.6497211  44.0788383
  31.4246960   9.4181461  44.3480530  31.9425831  11.0733147  42.9181786
  31.9022102  12.0756063  42.8003654  32.5983009  10.1655636  41.9057045
  31.8200397   9.4893980  41.5518532  33.1772194  10.8713379  40.6768188
  33.9647713  11.5815258  40.9288025  33.7747536  10.1785736  40.0842590
  32.1239357  11.5338783  39.7957726  31.5322590  10.7594070  39.3077011
  31.4844589  12.2172127  40.3545494  32.7759781  12.4722853  38.3802948
  33.7352829  11.1628418  37.6062813  33.7368355  11.4762459  36.5623131
  34.7268295  10.9594564  38.0107269  33.1338882  10.2564964  37.6767426
  33.7219009   9.3868761  42.5257072  34.5671158   9.9810019  43.2530365
  33.8634758   8.1865911  42.0938492  33.3096809   7.9238205  41.2911263
  35.0551872   7.3285875  42.4131355  35.4979820   7.6403122  43.3591080
  34.5759697   5.8416176  42.4539795  33.9979668   5.7403331  43.3725433
  33.9112816   5.7136922  41.5996246  35.8120575   5.0236993  42.2575722
  36.7572250   5.2536273  42.9997787  35.7071571   4.1109447  41.4304543
  36.0950470   7.4899707  41.2929230  35.7804260   7.0913687  40.1853600
  37.3425140   7.9309506  41.5842171  37.4752464   7.9935603  42.5834999
  38.4822235   8.4023228  40.6980705  38.3059158   8.1591415  39.6502762
  38.4906578   9.9734354  40.7162781  38.3755417  10.3788347  41.7215195
  39.8192520  10.4111490  40.1794777  40.5235901  10.3442850  41.0086594
  40.1807632   9.8026228  39.3505592  39.7364731  11.4561710  39.8808517
  37.3284950  10.5177269  39.8201523  37.3929710  10.0820017  38.8231125
  36.4427299  10.2128010  40.3774071  37.2639694  11.6050930  39.7804337
  39.8091049   7.6957240  41.0958862  40.1371803   7.4847908  42.2615509
  40.5554886   7.2941375  40.0968666  40.1608315   7.2741885  39.1673813
  41.9996758   6.9166818  40.1641579  42.1256905   5.9533529  40.6583481
  42.5374184   6.7975135  38.7040215  42.4179916   7.7833304  38.2545624
  44.0315475   6.4925189  38.7158966  44.6288300   7.2360458  39.2436485
  44.2393379   5.5761113  39.2682724  44.4066467   6.2910056  37.7125053
  41.9557495   5.6927056  38.0080452  41.2137909   6.1759968  37.6372032
  42.7500305   7.9992280  40.9672661  42.9533157   9.0514488  40.4444122
  43.2351265   7.5980763  42.1903152  42.9416656   6.6476917  42.3656693
  44.0356865   8.4147949  43.1156082  44.3917885   7.7743850  43.9225578
  44.9507408   8.7697201  42.6414719  43.2725067   9.6082888  43.7539024
  43.8881416  10.4062967  44.5231705  41.9967918   9.7553368  43.5903053
  41.5118294   9.0880260  43.0075455  41.1879120  10.6182098  44.3610954
  41.4433670  11.6409416  44.0838547  40.1224403  10.4395981  44.2162704
  41.4391937  10.2356215  45.7999687  41.6431770   9.0695190  46.1819420
  41.0934219  11.2504568  46.7095718  40.6512833  12.0688534  46.3160706
  41.3506279  11.2072477  48.1812019  42.3432426  10.8183384  48.4082794
  41.1846733  12.6532488  48.6617050  41.8616753  13.3181562  48.1253586
  40.1619453  12.9440651  48.4218102  41.3880844  12.8685493  50.1400490
  40.7448540  12.1321182  50.6217384  42.8471947  12.7565832  50.5192451
  43.3255272  11.8551855  50.1361313  43.3431015  13.6278496  50.0913734
  42.8714561  12.7140083  51.6081429  40.9365883  14.2760019  50.5794601
  41.3344421  14.5119171  51.5664558  41.3512001  15.0517120  49.9356689
  39.8540993  14.3800974  50.6535568  40.3668747  10.1633329  48.7770767
  39.1096725  10.2243814  48.5647316  40.8829575   9.2300930  49.5959969
  41.8675461   9.2925568  49.8122826  39.9968414   8.1782265  50.3261261
  39.2112312   7.7937574  49.6756630  40.8238564   6.8061275  50.7213097
  41.5769730   7.0108080  51.4822426  40.2199745   6.0401292  51.2078056
  41.2336884   6.1134486  49.3869743  40.3599243   5.9211321  48.7643585
  41.9358635   6.7435555  48.8410683  41.9214287   4.7221737  49.6250305
  41.2517967   4.0876875  50.2056541  42.0717506   4.4838381  48.5720825
  43.2649803   4.9472733  50.3679123  43.8313675   5.6402020  49.7456932
  43.0498772   5.4172564  51.3275719  43.9434052   3.6666737  50.7725945
  43.4361191   3.0243020  51.3643036  44.0912399   3.0915780  49.9555779
  44.8819008   3.6896660  51.1451569  39.3354645   8.7654228  51.6019478
  39.7231598   9.7790995  52.1830025  38.2178230   8.1436243  51.9506607
  37.9969902   7.2651000  51.5039749  37.3637733   8.5796728  53.0424805
  36.3724365   8.1687994  52.8513145  37.9437599   8.0766144  54.3637695
  38.8050537   8.6781521  54.6543236  37.2668343   8.2658215  55.1968803
  38.1831741   6.5540600  54.3981476  37.2950630   5.9696960  54.1575737
  38.9542465   6.4080477  53.6416893  38.7786522   6.0910602  55.6821289
  39.7140808   6.6397514  55.7917328  38.1432190   6.2315717  56.5565338
  39.1046906   4.6041851  55.6329002  38.1798973   4.0482559  55.4786186
  39.7317581   4.4070091  54.7634125  39.8349304   4.1482272  56.8651390
  39.1912422   4.0454173  57.6366272  40.2500954   3.2415423  56.7049294
  40.6418724   4.7097206  57.0968094  37.0056496  10.0950956  53.0988464
  37.0924911  10.7333765  54.1667290  36.6735382  10.7277670  51.9677391
  36.6086502  10.1959391  51.1115570  36.4237251  12.1998672  51.8082542
  36.8669853  12.7237568  52.6551056  37.1208382  12.9310913  50.6051292
  38.1839104  12.7516727  50.7657051  36.8546906  12.4679174  49.6550026
  36.8539124  14.7451820  50.5997391  37.6689034  14.9862766  51.6305466
  34.9562073  12.5020914  52.0329628  34.1053619  11.7689924  51.6314621
  34.6378059  13.6133051  52.7251968  35.4008865  14.1648722  53.0906830
  33.3106422  14.1794119  52.8550339  32.5825157  13.5233841  52.3780022
  33.0710182  14.1282454  54.4172096  33.9798279  14.4978180  54.8921661
  31.9339657  15.0194063  54.8192101  31.6597004  14.8576164  55.8616600
  32.1747513  16.0574131  54.5897179  30.9871597  14.8461876  54.3076897
  32.9005089  12.7166023  54.9311409  31.9384518  12.2802725  54.6625023
  33.6617737  12.0160761  54.5878563  32.9724617  12.5616207  56.4631157
  32.1240883  13.0272942  56.9646339  32.9330940  11.4990854  56.7030563
  33.8808212  13.0462961  56.8209877  33.3712463  15.6041498  52.3669701
  34.3038445  16.3380814  52.6544876  32.3625679  16.0161915  51.6460342
  31.6243649  15.3268890  51.6418381  32.1904411  17.2349777  50.8558731
  33.0266075  17.8528118  51.1832962  32.5042839  16.8639336  49.3768005
  32.0309029  15.8871374  49.2774010  32.0338135  17.6530056  48.7901840
  33.9709892  16.7866192  49.0333557  34.3487663  17.8068714  49.1002197
  34.3516769  16.0464783  49.7371788  34.2566261  16.2792301  47.6410942
  33.7982941  15.3030329  47.4827538  33.7842102  17.0399475  47.0196190
  35.7362099  16.2452469  47.3823318  36.2065926  17.1382256  47.3445168
  36.5519829  15.2204456  47.1322556  36.0716400  14.0082150  47.4456367
  35.0705376  14.0095491  47.5794182  36.6080284  13.2321482  47.0849304
  37.7742920  15.3631620  46.8893394  38.0146103  16.2755394  46.5288963
  38.4166603  14.5921612  46.7752495  30.8623714  17.9430141  51.1925545
  29.9175186  17.3422432  51.6765175  30.7708683  19.2435017  50.7761917
  31.5412941  19.7282276  50.3384857  29.5452042  20.0911045  50.8505135
  28.7577991  19.3395977  50.7927895  29.4182568  20.7052383  52.2636948
  29.2940559  19.8904266  52.9769630  30.6850357  21.4311008  52.7837524
  31.0442352  22.1941261  52.0932007  30.4667625  21.9089088  53.7388229
  31.4546280  20.6786423  52.9559059  28.2092991  21.6416359  52.4272690
  27.3388672  21.1967030  51.9450951  28.0902653  21.8270702  53.4947624
  28.4951820  22.6121025  52.0215988  29.4869175  21.0899582  49.7079277
  30.4998817  21.5526676  49.2423515  28.2615395  21.4307613  49.3393860
  27.5365887  20.9289074  49.8320236  27.7753105  22.6105080  48.5072441
  28.5280685  23.3858776  48.3649101  27.5037994  22.1185760  47.0619278
  28.3677692  21.6496296  46.5910301  26.7895203  21.3180962  47.2546463
  26.8018417  23.1723957  46.2165489  26.3810921  22.6268826  45.3718758
  25.9179287  23.5894833  46.6990776  27.9179516  24.4205971  45.6922188
  28.6342335  23.5609035  44.2992973  27.8164673  23.0771904  43.7650871
  29.2138062  24.2442875  43.6786690  29.3081589  22.7493515  44.5737000
  26.5950508  23.2859364  49.1940346  25.4573536  22.7597618  49.1241837
  26.9073219  24.4079533  49.9432487  27.8975887  24.6060581  49.9582329
  25.9146748  25.1984863  50.6318245  25.0023727  24.6115665  50.7382584
  26.3853245  25.5528049  52.0758286  26.8456631  24.6969013  52.5694084
  27.2410183  26.2233753  51.9969330  25.2239170  26.2303371  52.8311005
  24.9791889  27.1248798  52.2583885  24.3590088  25.5677853  52.7985115
  25.7033272  26.6708221  54.5084572  26.6099739  28.1663475  54.1076546
  27.2407665  28.0337181  53.2286682  25.9179211  28.8959885  53.6872063
  27.2538433  28.5669861  54.8906097  25.5922985  26.4596786  49.8277054
  26.4464531  27.2704601  49.5192413  24.3205986  26.7154408  49.4980354
  23.5689182  26.0988464  49.7716904  23.8386364  27.9153461  48.6562614
  24.6069069  28.5240765  48.1794930  23.0184956  27.4944649  47.4455910
  21.9803486  27.2558346  47.6766968  22.9298058  28.4752560  46.3037148
  22.1535110  28.2185211  45.5829086  22.7127895  29.4938507  46.6253815
  23.9460831  28.5419025  45.9153366  23.5976620  26.4440212  46.7568626
  23.5685902  25.7137299  47.3793030  23.0830574  28.9489689  49.5591354
  22.0303574  28.6860657  50.1998482  23.5836105  30.1750927  49.6240158
  24.4144707  30.2988148  49.0632477  23.1073456  31.3027897  50.4068260
  22.0568218  31.1536579  50.6563454  23.9215012  31.6035023  51.6483116
  23.5338440  32.5584602  52.0031052  23.6476765  30.5537853  52.8234978
  24.2587509  30.8723831  53.6680031  22.6106091  30.6834373  53.1329918
  23.7876892  29.5638161  52.3893814  25.3774700  31.8498745  51.3429489
  25.7160778  32.2417412  52.3020592  25.8364697  30.8895588  51.1079750
  25.5616436  32.5085526  50.4942284  22.9652100  32.5478630  49.5827904
  23.5565796  32.7663078  48.5117683  22.0375957  33.4961700  49.9249153
  21.4110126  33.2948494  50.6910515  22.0737686  34.8853683  49.4370651
  22.2569122  34.7718620  48.3685722  20.7352695  35.6511993  49.4940453
  20.7854347  36.5633430  48.8994217  19.9452457  34.9852180  49.1470108
  20.2628441  36.0415497  50.8929901  20.2637539  35.0708389  51.3887863
  21.0737019  36.6129189  51.3448219  18.9282265  36.7355270  51.0501976
  18.2533970  37.0705109  50.0876198  18.4636421  36.9350700  52.2528725
  19.0366211  36.5637054  52.9971085  17.5116692  37.2510262  52.3712692
  23.2807159  35.4928513  50.1316071  23.4677639  35.2812233  51.3482552
  24.1618977  36.0897903  49.3422928  23.9695702  36.0159531  48.3535271
  25.3363571  36.8273201  49.9649315  25.1022530  37.2486038  50.9425888
  26.5298691  35.8124352  50.1455956  26.2106876  35.0593834  50.8661041
  27.0394001  35.0601959  48.9281349  26.3163757  34.3553619  48.5176010
  27.3442726  35.8006287  48.1885986  27.9035969  34.4461708  49.1815872
  27.5893497  36.5456314  50.8157539  27.3500309  37.0616074  51.5891190
  25.7613087  38.0739937  49.1282043  25.8667469  37.9459724  47.9546165
  26.0853767  39.2069702  49.7929993  25.9541588  39.1871643  50.7942467
  26.7280388  40.3867073  49.2381706  26.5097408  40.4659004  48.1731911
  26.2179680  41.6498909  49.9145660  26.5895920  42.5543823  49.4330101
  25.1516895  41.7858696  49.7338448  26.5634346  41.7007484  51.4368019
  27.4839077  41.0750542  51.9369392  25.9276943  42.5328903  52.0913658
  28.2614155  40.2870865  49.1277771  28.9472980  41.2393265  48.7328262
  28.8600311  39.2176247  49.6427155  28.3431301  38.4258575  49.9977036
  30.3302422  38.9844589  49.4782219  30.8285770  39.9528389  49.5229683
  30.9486961  38.0760117  50.5218811  30.2840328  37.2377396  50.7307510
  32.3299294  37.5463600  50.2571754  32.9843216  38.4091530  50.1328125
  32.6787338  36.9073906  51.0684433  32.3482018  36.8641129  49.4072914
  31.0465755  38.7538490  51.8809814  30.1276627  39.3111115  52.0630684
  31.2288685  38.0671158  52.7075806  31.8681774  39.4635086  51.9781380
  30.6633148  38.4434395  48.0515556  29.8662453  37.5270500  47.6244621
  31.6054497  39.0259933  47.2677345  32.4937210  40.2063751  47.6517410
  33.2618141  39.8884811  48.3567734  31.8376503  40.9982414  48.0131607
  33.0660095  40.6970901  46.3089485  34.0550385  41.1547165  46.3312645
  32.3487015  41.3696709  45.8386154  33.1310005  39.4192390  45.5003929
  34.1003799  39.0217171  45.8010330  33.2789612  39.4912224  44.4228859
  31.9369946  38.5652657  45.9259605  31.0594749  38.8530579  45.3469658
  32.3551102  37.0557556  45.8077927  32.9525261  36.5253029  46.6776733
  32.2264595  36.5909462  44.5583038  31.7931309  37.1851463  43.8660240
  32.4117126  35.1834259  44.1830368  31.7174702  34.5764046  44.7641144
  32.1824608  35.1288795  42.6786385  31.1285172  35.2857132  42.4490585
  32.8168602  35.8773232  42.2038040  32.5197525  33.7062645  42.0521317
  33.5682297  33.4479370  42.2006760  32.0150566  32.8449783  42.4898224
  32.2863770  33.7457657  40.5266113  33.1195755  33.9698753  39.6712990
  31.1011715  33.4155807  40.2131348  30.4630013  33.2212677  40.9714775
  30.8485374  33.3631439  39.2366486  33.8327751  34.6504822  44.5416565
  33.9105492  33.6032791  45.1982040  34.8990250  35.3388634  44.2313576
  34.7878036  36.3177872  44.0090065  36.2441711  34.9295044  44.7087631
  36.3883972  33.9081726  44.3563652  37.3377380  35.7115517  43.9256630
  38.3156853  35.4297066  44.3158951  37.1593361  35.4453278  42.8838387
  37.1836624  37.2639275  44.0333977  36.0645523  37.8089180  44.0450745
  38.2700920  37.9119453  44.0020943  36.5559158  35.0804214  46.1852760
  37.5350418  34.4152107  46.5836143  35.8836174  35.9666557  46.9755440
  35.0138779  36.2900429  46.5767097  36.1202888  36.2120590  48.3971596
  37.1515617  35.8991051  48.5603561  36.0101776  37.7326813  48.7219658
  34.9551125  38.0039558  48.7586823  36.3678055  37.8566208  49.7441406
  36.8888512  38.6753464  47.7584152  37.8838272  38.3516769  48.0639801
  36.6956787  38.6339226  46.6864700  36.6416016  40.1395836  47.9806938
  35.9795036  40.6211472  48.8779678  37.1164513  41.0115776  47.0363426
  37.6332169  40.6771164  46.2355995  37.0191841  41.9984360  47.2280655
  35.3314438  35.3921089  49.3746414  35.6082306  35.4805412  50.5607338
  34.3792229  34.6076813  48.9380646  34.3918076  34.5479698  47.9299126
  33.8205872  33.4515076  49.6768913  33.2194862  33.9098778  50.4621773
  32.9554024  32.5522919  48.7654457  33.6120262  32.0422249  48.0606270
  32.3767815  31.3591843  49.5497360  33.1400681  30.6360416  49.8370514
  31.8421001  31.6874466  50.4410629  31.6412125  30.8597851  48.9191475
  31.8626175  33.2842827  47.9807014  32.1998901  34.1401253  47.3959923
  31.4820633  32.5140991  47.3098068  30.7039318  33.8273125  48.8138580
  29.7985668  34.0649147  48.2553253  30.3212280  33.1015549  49.5314331
  31.0425491  34.7190933  49.3412743  35.0134773  32.6589966  50.2929764
  35.8268738  32.1866760  49.4911461  34.9827385  32.4860535  51.5651436
  34.3014603  32.8955269  52.1882744  35.8787918  31.5246029  52.2286911
  36.8812218  31.5199051  51.8006554  36.2924194  31.8177052  53.7011604
  35.3431358  31.8120461  54.2368202  36.9709053  31.0830727  54.1348343
  37.0362892  33.2153931  53.7970963  37.9402390  33.2042007  53.1881180
  36.3405304  33.9690094  53.4281960  37.3474121  33.4129562  55.3047523
  36.4008408  33.6024437  55.8109131  37.6926689  32.5102997  55.8088455
  38.1973534  34.6062546  55.5573425  38.1171341  35.3080482  54.8354378
  39.0210800  34.8671837  56.6024208  39.0733109  34.1426315  57.5890884
  39.5316162  34.5045967  58.4131279  38.4430313  33.3857651  57.8127022
  39.6704025  36.0210304  56.6437263  40.2563705  36.1731834  57.4521751
  39.6243362  36.5933495  55.8128052  35.3981934  30.0837746  52.0661812
  34.6553574  29.6123657  52.9274902  36.0138931  29.3364487  51.1409035
  36.7364273  29.7900085  50.6002312  35.6941261  27.8743401  50.9556084
  34.6517487  27.7024403  51.2239418  35.8980522  27.3560314  49.4959717
  36.9561615  27.4237175  49.2431374  35.7003479  26.2908783  49.3757172
  34.9699326  28.1157742  48.4893265  33.5685883  28.2186642  48.5664139
  33.2696419  29.0166111  47.5082016  32.2745667  29.0382767  47.0889664
  34.4034958  29.3733101  46.8441048  34.3450890  29.9109840  45.9911118
  35.4738884  28.8361473  47.4657631  36.5263557  29.0133114  47.3004723
  36.5866051  27.1225586  52.0407562  37.7874832  27.4146538  52.1101456
  36.0711670  26.2455597  52.8600807  35.0896683  26.0085659  52.8357887
  36.8063507  25.6517925  54.0302391  37.6355743  26.3515282  54.1344490
  35.9696808  25.7780018  55.3025742  34.9466057  25.4689236  55.0883484
  36.5319176  25.0610638  56.5307846  36.6904297  23.9923458  56.3865051
  37.5542374  25.3925076  56.7127380  35.9442177  25.1614285  57.4432831
  35.9103203  27.2670956  55.6957321  35.3768654  27.4641247  56.6256371
  36.9142685  27.6860580  55.7639732  35.3604927  27.8177433  54.9324646
  37.2481270  24.1796303  53.8105278  36.4519615  23.3532505  53.4446030
  38.5176353  23.8332405  53.9255219  39.1904030  24.5286903  54.2150612
  39.0718956  22.4911785  53.6535034  38.3382492  21.6998920  53.4994698
  39.9023933  22.6560249  52.3896484  40.5603485  23.5225468  52.4554939
  40.4767494  21.7678852  52.1261559  38.9936371  22.8184223  51.1380920
  38.5828781  24.1150913  50.6565018  38.8710403  24.9845028  51.2287636
  37.8593941  24.2338448  49.4569778  37.5949364  25.1695862  48.9870300
  37.4910965  23.0790482  48.7598152  36.8202629  23.0794582  47.5525131
  37.0124130  22.2477150  47.1133308  37.9069099  21.8232155  49.2159882
  37.6572533  20.9777870  48.5920296  38.6890259  21.6684895  50.3811989
  39.0453072  20.7082748  50.7239113  39.9350853  21.9946308  54.7401543
  40.9583130  22.5899296  55.1090012  39.5270576  20.9724846  55.4777527
  38.7689247  20.4155731  55.1100769  40.0162697  20.5546398  56.8237190
  40.8104897  21.2385998  57.1229210  38.8461075  20.5760498  57.9038963
  38.0193100  20.1438427  57.3402405  39.0945740  20.0912285  58.8479881
  38.3236275  21.9376793  58.2524529  37.8345528  22.4615383  57.4311829
  37.1958733  21.6807919  59.2926865  36.5260124  20.9383945  58.8588257
  37.6337738  21.4034367  60.2515488  36.6108818  22.5996494  59.3324280
  39.3567467  22.8770847  58.9145775  40.1169662  23.2253361  58.2153778
  38.8427238  23.8013878  59.1782875  39.7822647  22.5246639  59.8541794
  40.5228729  19.0808411  56.7263908  40.2853813  18.4099941  55.7536583
  41.3253479  18.6231632  57.6804237  41.5241699  19.2959576  58.4070053
  41.8627548  17.2545319  57.7010078  42.5316315  17.2004814  58.5599518
  40.6640549  16.2692680  57.9810944  39.9911613  16.1538410  57.1314011
  41.0967789  15.2784748  58.1195908  39.7954903  16.7018261  59.1718864
  39.3709412  17.6965771  59.0365028  39.0159645  15.9485931  59.2862701
  40.6373482  16.8555031  60.4609146  40.3835258  17.7825203  61.2473526
  41.5985489  16.1102619  60.6863327  42.6608734  16.9989166  56.4327126
  43.1730499  17.9003830  55.8103943  42.8679848  15.7637405  55.9730911
  42.5278931  15.0221243  56.5684433  43.5039330  15.3053217  54.7513618
  44.5341988  15.6599464  54.7215118  43.5943985  13.8056726  54.6889496
  42.6320496  13.2938652  54.6951637  44.0153084  13.5700474  53.7114983
  44.5830498  13.2885742  55.7732773  45.6280212  13.4854012  55.5337219
  44.4042778  13.8356857  56.6989174  44.2946510  11.8112946  56.1275711
  43.2344933  11.6839399  56.3465309  44.6536827  11.1899033  55.3071632
  45.1825523  11.3441620  57.3381348  46.2351379  11.3871231  57.0582695
  44.9072876  11.8114157  58.2836533  45.0307693   9.8971567  57.6013184
  44.2891273   9.6828518  58.2525787  44.9208107   9.4421635  56.7063332
  45.8164444   9.5427828  58.1278496  42.8568420  15.8047323  53.4863396
  43.5293503  15.8261576  52.4862366  41.7553215  16.5844555  53.6145172
  41.4019241  16.7604752  54.5441551  41.1561317  17.4000950  52.4815445
  41.3702812  16.8825264  51.5464706  39.6735344  17.4900246  52.7076988
  39.2736511  17.7540226  51.7286682  39.2582130  16.5468388  53.0626755
  39.5234528  18.2659740  53.4583511  41.7497940  18.8026695  52.1856308
  41.3645439  19.4670296  51.2202911  42.7332954  19.2812309  53.0063705
  42.9394760  18.7189503  53.8196526  43.4108963  20.6182652  52.7950897
  42.7015533  21.4273033  52.6207619  44.2221107  20.9526997  54.0127716
  43.6179085  20.8578415  54.9150162  45.5211182  20.1683903  54.1166649
  45.4415283  19.0814266  54.1335411  46.2001228  20.4997787  53.3310242
  46.1019135  20.4127827  55.0060730  44.5859642  22.4520245  53.9316025
  45.4378624  22.5817738  53.2641182  43.8537254  23.1760178  53.5741653
  44.9512177  22.7532921  54.9133987  44.2018814  20.6438198  51.4956360
  44.2776604  21.6941299  50.8813324  44.7525101  19.5079479  51.1172867
  44.7613144  18.8592453  51.8913727  45.4714928  19.4238014  49.8351021
  46.2869797  20.1336746  49.9735336  45.9979172  17.9699001  49.7739525
  46.3651390  17.6692104  50.7551956  44.8561859  17.0761890  49.3811951
  43.9407234  17.3016472  49.9281807  44.5826111  17.2309971  48.3375053
  45.1032639  16.0370274  49.5984383  47.1606102  17.7236729  48.8757401
  47.5307465  16.7089348  49.0220718  46.8152695  17.7235489  47.8418922
  47.9881134  18.4145126  49.0372124  44.6528816  19.7473412  48.5176239
  45.2608566  19.9242039  47.4122238  43.2949333  19.8677387  48.6440201
  42.8106041  19.9525623  49.5262489  42.4314957  20.2071457  47.4727859
  42.7849579  19.6301746  46.6182289  41.0200996  19.7088375  47.8162308
  40.6487808  20.3017788  48.6520805  40.3167305  19.9100857  47.0082283
  40.8805618  18.1795959  48.1218758  41.5733490  17.8534184  48.8976021
  39.5550690  17.7670631  48.7516861  39.5581474  16.8683567  49.3684616
  39.2869530  18.5504971  49.4605179  38.7717934  17.7415981  47.9941063
  41.1081924  17.1777973  47.0163651  40.7492561  16.1650200  47.1995163
  40.5502625  17.5543575  46.1590347  42.1761971  17.1198997  46.8063393
  42.5902328  21.6806240  47.0336456  42.6416855  22.0370407  45.9108696
  42.8009834  22.5359936  48.0570107  42.7662315  22.2041931  49.0103188
  43.1258888  23.9686050  47.9289131  43.4459038  24.1294460  46.8994370
  41.9046402  24.7616844  48.1814613  41.5125198  24.6650543  49.1938858
  42.1986160  25.8103981  48.1381340  40.7018661  24.4939842  47.2083702
  40.4868088  23.4262333  47.1664734  39.8633156  25.0566063  47.6187363
  40.8955765  24.9155254  45.7661743  41.7077255  24.2703571  45.4311104
  39.9808159  24.8564949  45.1763992  41.2388382  26.3550491  45.7254677
  42.1704102  26.6586800  45.9705849  40.5654449  27.3874569  45.2523079
  39.2999344  27.3241863  44.8893280  38.7252693  28.0751095  44.5344009
  38.8576546  26.5202332  45.3114014  41.1343918  28.5077209  45.2490807
  40.6165504  29.3639870  45.1121368  42.0875969  28.5592194  45.5790062
  44.2460861  24.4579296  48.8963203  43.9845161  25.1497631  49.8385162
  45.4790192  24.0585709  48.6632957  45.9260178  22.9821358  47.8333321
  46.0053101  23.4037533  46.8313065  45.2665291  22.1369934  48.0305901
  47.3590584  22.6363602  48.2488632  48.0840187  22.5969448  47.4358559
  47.1984177  21.7395115  48.8471565  47.8441544  23.6906357  49.3102226
  48.6499596  24.3165150  48.9267387  47.9920311  23.2793121  50.3087425
  46.6403809  24.6059151  49.3954124  46.3387947  24.4850636  50.4358635
  46.9850121  26.1149216  49.1390266  47.9225693  26.6447811  49.7615242
  46.0820808  26.8233547  48.3672485  45.4020042  26.2628403  47.8738747
  46.1208687  28.2529297  48.0476570  47.0473671  28.7379379  48.3550262
  45.9192162  28.5669327  46.5514755  46.1141281  29.5931225  46.2399597
  46.6629906  27.9744225  46.0187111  44.5303268  28.1515121  46.0420494
  44.0779915  27.0134773  46.3295441  43.8679581  29.0405922  45.4345627
  45.1619720  29.0931339  48.8662834  45.0362396  30.2659473  48.6525307
  44.3992653  28.5735378  49.8345261  44.5201263  27.5888710  50.0240631
  43.4544907  29.2851562  50.6945686  43.5501900  30.3358040  50.4205551
  42.0453033  28.7499428  50.4336777  42.0008659  27.7714005  50.9117813
  41.3463554  29.3671780  50.9981194  41.4263725  28.7720623  49.0221558
  42.1449280  28.1877384  48.4474030  39.9629021  28.2534847  49.1738167
  39.8289070  27.3741722  49.8038635  39.2801666  29.0741348  49.3940620
  39.5933685  27.9739113  48.1872139  41.3753777  30.3015862  48.7019501
  40.7575226  30.4435043  47.8152618  41.0724564  30.9660931  49.5111275
  42.3935165  30.6211205  48.4797020  43.7803688  29.3161469  52.2261124
  43.6967010  30.3543491  52.8504791  44.2204590  28.2032738  52.7888489
  44.0935211  27.3423500  52.2762108  44.8762093  28.1258259  54.0985222
  44.3306618  28.6416912  54.8886871  45.0936432  26.6714020  54.5383759
  45.8293610  26.1577587  53.9195137  45.3979683  26.8482437  55.5699844
  43.7919617  26.0358982  54.5476646  43.4618340  25.8385925  53.6680679
  46.2553902  28.8023605  54.0413628  47.1246986  28.4939404  53.2090645
  46.4543419  29.7110310  54.9503746  45.7042160  29.8065052  55.6199188
  47.6450119  30.5464840  55.1948357  47.5164299  31.3752842  55.8910065
  48.8963737  29.6781654  55.5878448  49.2456932  29.0815964  54.7451210
  49.7593765  30.3110256  55.7947845  48.7546883  28.8035698  56.8731651
  47.9979477  28.0370789  56.7060165  50.0607376  28.1205635  57.2600365
  50.8207741  28.8782635  57.0694389  49.9981918  27.8025970  58.3007507
  50.3219566  27.2614441  56.6421509  48.4155884  29.6756668  58.0792580
  47.8668404  29.0636883  58.7951202  49.3178482  30.1407242  58.4764404
  47.7321739  30.4420471  57.7135963  47.9054222  31.4516125  53.9309769
  49.0333557  31.6729908  53.5123711  46.8443336  31.9482079  53.3245926
  45.8982582  31.7278767  53.6011772  47.0448494  32.5895004  52.0258636
  47.7869911  32.0011787  51.4862289  45.7439308  32.4242668  51.1727791
  45.4955177  31.3643703  51.2276802  44.5130119  33.2241096  51.6931267
  44.3814812  33.0976105  52.7677460  44.5712585  34.2550087  51.3439064
  43.7004433  32.7497635  51.1428299  45.8637009  32.8782997  49.8629074
  45.2064056  32.4857521  49.2837067  47.3909149  34.1141167  52.1270599
  47.0383453  34.7224770  53.1297340  48.1195946  34.7812691  51.1347427
  48.5089035  34.2938042  50.3404388  48.4117508  36.2147484  51.1147003
  48.5259514  36.5330429  52.1509171  49.7528915  36.4760818  50.3255310
  49.6082230  36.2562256  49.2677803  49.9655609  37.5450211  50.3411369
  50.9461632  35.7030792  50.7678299  50.6294289  34.6601295  50.7617798
  51.7555504  35.9573822  50.0834885  51.3896370  36.0789795  52.2268524
  51.0841713  37.1169472  52.3588295  50.7668381  35.5886536  52.9750595
  52.8517227  35.7085419  52.4394913  53.3164406  35.6628227  51.4545822
  53.3228455  36.5007553  53.0213394  52.9268379  34.4471817  53.1715202
  52.3233223  33.7648277  52.7353249  53.7884140  33.9267349  53.2547417
  52.6088219  34.4851875  54.1293945  47.2568932  37.0737648  50.5958977
  47.4143944  38.2569237  50.4313965  46.1715431  36.4723473  50.1932449
  45.9521027  35.4983711  50.3459473  45.0862694  37.2311287  49.5020409
  45.5285606  37.7415009  48.6464729  44.0372353  36.2175598  48.9721069
  44.3412743  35.6058350  48.1227264  43.6926651  35.6845512  49.8582649
  42.7915993  36.9979858  48.3942833  42.7094154  38.1987419  48.3176880
  41.8708992  36.2040482  47.8256607  41.9853554  35.2007027  47.8083496
  41.1043243  36.6978951  47.3914070  44.5122070  38.2993355  50.4143524
  43.9632950  37.9915657  51.4670868  44.6607399  39.5603027  50.0560265
  45.1672630  39.8387909  49.2277870  44.3902664  40.6733475  50.9251862
  44.8439865  40.5912285  51.9128571  45.1263847  41.9094925  50.3132172
  44.9226761  42.6722641  51.0647392  46.5894508  41.7963142  50.2678680
  46.9551201  41.3259392  51.1806259  46.8745575  41.2621994  49.3614845
  47.0642548  42.7772446  50.2886810  44.5419617  42.3296242  49.0750237
  43.6957245  42.6939201  49.3447800  42.9253998  41.0290070  51.1156731
  42.6268349  41.9662971  51.8998833  42.0066299  40.2727852  50.5246696
  42.3940201  39.6291046  49.8496132  40.5605392  40.4704018  50.4853172
  40.2745438  41.2880630  51.1469421  40.1895943  40.9062080  49.0630455
  40.3600845  40.0378494  48.4266586  39.1320953  41.1175613  48.9045181
  40.9948235  42.0815582  48.3676758  41.9381065  41.6876640  47.9893036
  40.4145699  42.3919830  47.4987488  41.2765045  43.2688446  49.2815285
  42.4049225  43.7688332  49.3329163  40.4217453  43.6294556  50.0867004
  39.6743126  39.2653656  50.9232330  38.5299759  39.2548599  50.4950600
  40.2666397  38.1158867  51.4500160  41.2446976  38.0923843  51.7009125
  39.4640427  36.9742165  51.8006401  38.4418068  37.1244736  51.4534302
  40.0655327  35.7544212  51.0290451  39.7821617  35.9656754  49.9979439
  41.1518593  35.7026138  51.1019592  39.6266937  34.3754044  51.4464149
  38.5401688  34.3139610  51.5079498  40.1010284  33.5049782  50.3187714
  39.7208366  33.8591995  49.3606110  41.1734009  33.3107681  50.2987938
  39.7023544  32.5035667  50.4810486  40.4164543  33.7878952  52.6246567
  41.4442101  34.1041107  52.4462509  39.9818687  34.2709122  53.4998322
  40.3624573  32.6993828  52.6066704  39.3105087  36.7998505  53.3177414
  40.2827110  36.8300743  54.0993423  38.1720352  36.8507347  53.8265572
  10.7708664  37.6837578  49.8028183  11.3191118  37.4008026  50.6024818
  11.3165188  38.5049133  49.5835648   9.8074684  37.8139992  50.0766830
  10.8536940  36.6583138  48.7744560  10.3901081  35.7229424  49.0879364
  10.0746126  37.0037231  47.4531174   9.0004816  36.8813858  47.5923233
  10.2373772  38.0552635  47.2167587  10.4123602  36.2028542  46.1438713
  10.6954088  36.9081573  45.3625069  11.1820936  35.4563484  46.3396988
   8.9576750  35.2581291  45.5383110   7.9314013  36.7054062  45.1017609
   7.5140653  36.9812126  46.0701942   8.5143461  37.5443611  44.7217255
   7.0776596  36.4240646  44.4852676  12.3296299  36.4462547  48.4893951
  12.9541368  37.4981651  48.1787262  12.7481823  35.1905899  48.4918175
  12.1298704  34.4890137  48.8733597  14.0502787  34.7202301  47.8898773
  14.2945480  35.4485817  47.1166153  15.0694513  34.7711525  49.0794334
  16.0229969  34.3979874  48.7058029  15.3062315  35.7793655  49.4193535
  14.6727524  34.1123428  50.4568367  13.7921658  34.6181297  50.8528709
  14.4808407  33.0547714  50.2756615  16.0502510  34.0806618  51.6246490
  17.0102386  32.7317429  50.9034691  17.7846298  32.4431877  51.6142120
  16.4023304  31.8416824  50.7411346  17.3645096  33.0233307  49.9147491
  13.9404926  33.3166885  47.3619003  12.9129753  32.6353226  47.4986649
  14.9616232  32.7701149  46.6620026  15.8194256  33.2902298  46.5447235
  14.9669333  31.4445629  46.1013603  14.0226612  31.1078129  45.6735153
  16.1426506  31.3626385  45.0889397  17.0866966  31.6799259  45.5318985
  16.4824200  29.9249821  44.6492424  16.7137661  29.2231979  45.4505463
  15.6875610  29.3886814  44.1308975  17.4365292  29.9670906  44.1238823
  15.7161026  32.2007980  43.7997322  14.9781437  31.6330299  43.2330284
  15.4094267  33.2288857  43.9923019  16.8418694  32.2898750  42.8629112
  16.6904430  33.0949898  42.1439133  17.6650219  32.5862579  43.5130463
  16.9774742  31.3365784  42.3520851  15.1360359  30.4769211  47.2962303
  16.1365433  30.5362129  48.0234680  14.3132305  29.4180717  47.4159889
  13.5142117  29.3830109  46.7991905  14.3789234  28.3634262  48.4487419
  15.4148626  28.3094082  48.7834358  13.4266129  28.7617321  49.5689735
  12.4397125  28.7494507  49.1063957  13.4299974  27.9952984  50.3440018
  13.6946325  29.9605370  50.3913383  14.7639837  30.0819016  50.5641365
  13.3286343  30.8231640  49.8345413  12.8659239  29.9913502  51.7343636
  11.8286476  30.0165310  51.4004135  13.0640526  29.0429153  52.2336807
  13.1013680  31.1549721  52.6190605  12.4130249  31.8859310  52.5095978
  14.2236204  31.5557804  53.2124443  15.2605915  30.7933884  53.2318916
  16.1112671  31.2270336  53.5611458  15.2570295  29.9120865  52.7385406
  14.2450218  32.6374283  53.9086266  13.4211378  33.2200661  53.9516373
  15.0681305  32.9374466  54.4112015  14.1481209  26.9860458  47.8679390
  13.5601034  26.8735428  46.7946739  14.5740976  26.0208778  48.5804367
  14.9990730  26.2090359  49.4771500  14.5000372  24.6274529  48.1268845
  14.4300165  24.5234661  47.0441170  15.3689919  23.9891567  48.2868729
  13.2222681  23.9513111  48.7596436  12.8373241  24.3121815  49.8921547
  12.6304331  22.9638252  48.0702705  12.9332085  22.8665581  47.1116409
  11.4024315  22.2066422  48.5482292  11.2961378  22.2738056  49.6309509
  10.0341482  22.6458092  47.8025856  10.0692568  22.1528912  46.8310432
   8.8620043  22.0157795  48.4805565   8.8751450  22.0425797  49.5701523
   7.9327073  22.5173588  48.2105103   8.8134861  20.9655590  48.1928406
   9.8892908  24.1389408  47.6203270   9.9808969  24.5293102  48.6338959
  10.6877604  24.6490040  47.0814552   8.6249914  24.7666149  46.9947281
   8.8675041  25.8107052  46.7968254   8.3968096  24.3452721  46.0156975
   7.7630997  24.6921749  47.6578331  11.6477404  20.7288475  48.1581345
  12.2162466  20.4555244  47.0824089  11.2873983  19.7649765  49.0436935
  10.8183069  20.0541859  49.8901024  11.6942873  18.3332367  48.8870544
  11.9483051  18.0817604  47.8573265  12.7922373  17.8703365  49.7673645
  12.5144539  17.9058533  50.8207779  13.1077204  16.8700943  49.4705734
  14.0692806  18.6652756  49.6664505  14.5116377  18.5748959  48.6743546
  13.8343019  19.7007847  49.9126282  15.0390224  18.0528717  50.7383919
  15.8813887  18.7442856  50.7168083  14.5458260  18.1175976  51.7082748
  15.5565138  16.7094860  50.4362602  15.3777781  16.3449097  49.5114708
  15.7415066  15.8210840  51.4159966  15.7703476  16.0507889  52.7125397
  15.8848553  16.9915943  53.0616455  15.7935553  15.1776772  53.2197266
  15.8381214  14.5744667  51.0925484  15.8150988  14.4532108  50.0901184
  15.9557877  13.8360405  51.7715034  10.4952354  17.3327675  49.0568352
   9.4225731  17.6235886  49.6329422  10.8081865  16.0785675  48.7366409
  11.6884651  15.9010935  48.2743492  10.0180378  14.9626741  49.1660385
   9.9050694  15.1279058  50.2375031   9.0650396  14.8907413  48.6418991
  10.7284508  13.6025209  48.8003922  11.7705927  13.5931578  48.1808128
  10.0953474  12.4812202  49.1865311   9.1754808  12.6145124  49.5817223
  10.5512609  11.1547165  48.8349838  11.0556965  11.1797647  47.8690529
  11.6060324  10.7525730  49.8208885  12.4334698  11.4573793  49.7390518
  11.2589922  10.7847261  50.8536644  12.1054831   9.8055601  49.6164055
   9.3109159  10.1868362  48.8093529   8.2785158  10.4021826  49.4245071
   9.6124048   9.0870705  48.1928787  10.4847374   8.9450779  47.7040291
   8.7775822   7.8488541  48.0847015   8.1541033   7.7558422  48.9739304
   7.8357873   8.0904779  46.9348183   7.4550281   9.1058331  47.0451698
   8.4642248   7.8913116  45.6278267   7.8271465   8.3063431  44.8468132
   9.4036207   8.4395514  45.5566330   8.5260105   6.8318472  45.3791962
   6.8299465   7.1265364  46.9671936   6.2973628   7.2195563  46.1739082
   9.6634569   6.5461736  47.9256783  10.7882891   6.6264901  47.5466537
   9.1044502   5.3029089  48.0816689   8.1235094   5.2367806  48.3129311
   9.5793171   4.0069103  47.5635033  10.6204910   4.0689111  47.2469406
   9.6079988   2.9153786  48.6514397   9.8040924   1.9334092  48.2208786
  10.6725140   3.3370917  49.6544609  11.0249891   2.5322118  50.2994614
  11.5748463   3.7129471  49.1721420  10.3144236   4.1776657  50.2488556
   8.3854847   2.9759839  49.2556534   7.8142381   2.2969654  48.8893051
   8.7540236   3.5402987  46.3881493   7.5618534   3.8241093  46.2138596
   9.4802990   2.6456888  45.6499252  10.4605103   2.6366489  45.8932457
   8.9481936   1.6321827  44.7774925   7.8881359   1.8847208  44.7528419
   9.4726410   1.8529465  43.3388824   8.8841124   1.1392263  42.7623940
   9.1662073   3.3344786  42.8296738   9.6818552   4.1796122  43.2857018
   9.2201948   3.4650989  41.7488785   8.1206741   3.4600108  43.1110992
  10.9107599   1.4530779  43.1799698  11.2068024   0.4154363  43.3341103
  11.3428926   1.6594228  42.2007942  11.4448395   2.0859411  43.8887405
   9.0320063   0.1618954  45.1918259   9.8243513  -0.2505810  46.0429535
   8.1162367  -0.7053651  44.6848602   7.2661600  -0.3296876  44.2894669
   8.2485085  -2.1609185  44.8992996   8.7367277  -2.3607101  45.8531494
   6.9372745  -2.8779676  44.6781349   6.7383876  -2.9592600  43.6095200
   7.0287862  -3.9515631  44.8428192   5.7031422  -2.3757923  45.4009819
   5.5019693  -1.4002869  44.9582405   4.8409247  -3.0145662  45.2095375
   5.9002385  -2.2285366  46.8874054   6.3623943  -3.2257211  47.5433426
   5.6019845  -1.2275856  47.5020332   9.2308283  -2.9215112  44.0304260
   9.6971512  -4.0064096  44.4995155   9.6167088  -2.3951895  42.8714752
   9.1897507  -1.5223703  42.5958061  10.5220394  -3.1005442  41.9050140
  11.2274246  -3.7603390  42.4101906   9.6094513  -4.0104461  41.0064697
   8.7270803  -3.3950484  40.8309479  10.2395096  -4.2026324  40.1380272
   8.9195709  -5.3235679  41.5225563   9.7165766  -6.0574794  41.6419601
   8.3946056  -5.2406397  42.4742050   7.9614806  -5.9303999  40.5272751
   8.3485842  -6.1827779  39.5400810   7.5335927  -6.8160558  40.9969826
   6.8032746  -5.0670657  40.1502190   6.1104612  -4.7035389  40.7889366
   6.2401571  -5.0115852  38.9670944   6.6310587  -5.6544466  37.9063492
   7.4178228  -6.2877665  37.9093094   6.1929178  -5.4159398  37.0281410
   5.1698480  -4.2293177  38.9174881   4.9404278  -3.6874526  39.7383728
   4.6136098  -4.1341186  38.0798531  11.2869148  -2.2165694  41.0138817
  10.8656931  -1.1273987  40.6482391  12.4142246  -2.6975331  40.3867912
  12.6900415  -3.6169655  40.7009087  13.1123333  -2.0441258  39.2122726
  13.1632423  -0.9829420  39.4560089  14.5450392  -2.4834414  39.1509552
  15.0869131  -2.1878409  40.0493393  14.5299778  -3.5588276  38.9737015
  15.3219919  -1.7249808  38.0693741  15.0102062  -0.5332776  37.9490738
  16.2714844  -2.3498135  37.5243721  12.3291903  -2.3179779  37.9073639
  12.7621775  -3.2251165  37.2007332  11.3524113  -1.4898499  37.6665993
  11.2186432  -0.7273660  38.3153114  10.4687490  -1.5100373  36.4156036
  11.0242929  -1.6523048  35.4886513   9.4338064  -2.6703651  36.3904152
   9.9802866  -3.6133225  36.3733521   8.5040407  -2.7371132  37.5710106
   8.1558571  -1.7310961  37.8051033   7.6476469  -3.3746068  37.3512573
   9.1807795  -2.9275577  38.4039917   8.6174078  -2.5738420  35.2235794
   8.2988596  -3.4705706  35.0970688   9.8464413  -0.1538606  36.1923103
   9.6882887   0.6543236  37.1390610   9.5457125   0.2259333  34.9263268
   9.7894869  -0.4095272  34.1800919   9.0722752   1.5752553  34.5062256
   9.7425461   2.2477190  35.0416107   9.2086630   1.7806327  32.9927940
   8.3932962   1.2661561  32.4842720   9.1843338   2.8590612  32.8362694
  10.5554209   1.2566715  32.4349861  10.8643427   1.9549084  31.6570816
  11.3184290   1.0942950  33.1962700  10.4662018  -0.0524639  31.6193733
  10.6931219  -0.0934523  30.3639088  10.3713093  -1.1105200  32.2767448
   7.6173558   1.8670835  34.9508858   7.3386416   3.0662940  35.2207108
   6.8424163   0.7916898  35.1964645   7.2407355  -0.1310790  35.0967674
   5.4718266   0.9105417  35.6665001   5.0521078   1.6969364  35.0391884
   4.7730393  -0.4006757  35.2960892   3.6952395  -0.3044810  35.4272194
   4.9253116  -0.4900671  34.2204857   5.2114425  -1.6022185  36.0641212
   6.2888250  -1.4671781  36.1595726   4.6695838  -1.5026429  37.0046387
   4.9932184  -2.9448850  35.4433670   5.0511265  -3.1219056  34.2026138
   4.8171644  -3.9388862  36.2036171   5.3262882   1.2025878  37.2787781
   4.2650638   1.5622163  37.8292236   6.3945961   1.0007932  38.0380363
   7.1968951   0.7164738  37.4943619   6.6342783   1.5564768  39.4050941
   5.6856627   1.5361871  39.9415779   7.5545783   0.6126825  40.1554222
   8.3982382   0.3420100  39.5205383   7.9173241   1.1849943  41.0092201
   6.9745412  -0.6771926  40.7414436   6.6770620  -1.3825657  39.9655151
   7.7692952  -1.2091426  41.2644119   5.7648869  -0.3766655  41.7228165
   6.1199532   0.0415737  42.8986626   4.5620680  -0.5134951  41.4023056
   7.3194284   2.9654696  39.3002930   6.7827368   4.0283322  39.4827423
   8.5030794   2.9179120  38.6917992   8.8380308   1.9959230  38.4512901
   9.4179392   4.0830879  38.7384872   9.5800209   4.3020816  39.7938881
  10.7972221   3.7736490  38.0589600  10.5740061   3.4396513  37.0456886
  11.7577715   4.9697599  37.9638519  11.3789682   5.6677008  37.2171974
  11.7286730   5.6003838  38.8524284  12.7689743   4.7188234  37.6435356
  11.4776459   2.6192014  38.8965874  11.9688902   3.0110292  39.7872314
  10.7145967   1.9208196  39.2402725  12.5583982   1.8529240  38.0371704
  12.8946962   0.9261306  38.5019951  12.1211061   1.6367840  37.0624123
  13.3949146   2.5245900  37.8442650   8.7956610   5.4153347  38.1592445
   8.7412968   6.4605880  38.8273010   8.3046970   5.4117217  36.9180374
   8.2328711   4.5305219  36.4297485   7.8024654   6.6245227  36.3535271
   8.5270128   7.3738604  36.6723213   7.6136827   6.7214932  34.7912216
   6.8109336   6.1106930  34.3781624   7.3382559   7.7399783  34.5174904
   8.8032312   6.1849008  34.0459251   8.9545069   5.1569118  34.3752480
   8.6730824   6.1567721  32.4999390   9.5063848   5.5420995  32.1595230
   7.8031430   5.5094829  32.3888893   8.6727257   7.1820741  32.1299973
  10.0794344   7.0235815  34.2513580  10.8919420   6.6466904  33.6301651
   9.8471117   8.0708179  34.0579109  10.4883585   6.8839355  35.2520485
   6.5151353   7.0241265  37.0144463   6.2892098   8.1812468  37.3448410
   5.5742044   6.1130910  37.0396538   5.8630400   5.2195921  36.6677170
   4.1929364   6.4053154  37.5134010   3.7373703   7.1612787  36.8738060
   3.3848848   5.1212897  37.5610275   3.7474561   4.4761453  38.3612976
   2.3219001   5.3347158  37.6733360   3.4849026   4.3977675  36.1865540
   3.6329224   5.0894432  35.3572311   4.3384590   3.7300913  36.3038368
   2.1846325   3.6138740  36.0108643   1.3189001   3.9544957  35.2419167
   1.9483145   2.6276174  36.8366508   2.6689935   2.2624166  37.4427490
   1.0791144   2.1238520  36.7326698   4.2235532   7.0688024  38.8814774
   3.5575798   8.0467224  39.1522217   5.0182877   6.4251184  39.8406258
   5.6122169   5.6462216  39.5943146   5.0440388   6.8200388  41.2835083
   3.9821417   7.0161786  41.4318466   5.4314151   5.5520368  42.0925598
   6.4381928   5.2325249  41.8234673   5.5865726   5.8349442  43.1337128
   4.4239683   4.3890500  41.9371414   3.4557812   4.8790193  42.0403099
   4.5062208   4.0423136  40.9070396   4.5275517   3.2717490  42.9390945
   5.4598746   2.7366312  42.7587509   4.5165248   3.7666900  43.9101868
   3.3905878   2.1930413  42.8394852   2.4606729   2.7288005  43.0300789
   3.3698850   1.8412751  41.8080139   3.6857290   1.0323383  43.8135376
   4.6043139   0.6332648  43.6829720   3.8536711   1.2745672  44.7795715
   3.0105648   0.2820608  43.8501053   5.8637700   8.0909243  41.6217079
   5.4514027   8.8989325  42.4560394   6.8792763   8.2898998  40.8158836
   7.0154748   7.5855732  40.1049156   7.5739870   9.5783253  40.8122482
   7.8457055   9.9377937  41.8047447   8.8551817   9.4948692  39.9376297
   8.7298288   9.4283381  38.8569069   9.7042837  10.7724276  40.0488548
  10.6010561  10.7354031  39.4303665   9.1288233  11.6358814  39.7150955
   9.9615097  10.9780159  41.0879250   9.6559629   8.4458828  40.3752098
   9.3565779   7.6174479  39.9935532   6.7279024  10.6580200  40.1836929
   6.7465920  11.7472343  40.7403145   5.9958782  10.5081987  39.0832405
   5.9666080   9.6318645  38.5819588   4.9099116  11.4184437  38.6085892
   5.3811049  12.3861427  38.4364357   4.1589599  10.8861828  37.3752975
   4.8859787  10.5801535  36.6230392   3.7109354   9.9097013  37.5593071
   3.0753248  11.8371506  36.6948967   2.2985902  12.1333218  37.3999290
   3.5029624  12.7580385  36.2984238   2.5349460  11.1051550  35.5196419
   3.2595518  10.9083872  34.7294960   2.1862624  10.1303225  35.8605576
   1.3057805  11.8754444  34.9037781   1.4489710  12.7895880  34.3276367
   0.9344627  11.3146181  34.0460510   0.1464784  12.0310440  35.7819328
   0.1442426  12.8932867  36.3078995  -0.6923900  12.0624142  35.2203140
   0.0280302  11.2552767  36.4177437   3.8838573  11.7575893  39.7433052
   3.6709914  12.9381666  39.9377975   3.3598454  10.7426558  40.4579697
   3.4964447   9.8003836  40.1209793   2.5011370  10.9591055  41.6090851
   1.7052597  11.6583309  41.3526421   2.0067658   9.5944586  42.1292305
   2.8523803   8.9099216  42.0625458   1.6850493   9.6689711  43.1680031
   0.9179346   9.0360537  41.2389030   1.3961687   9.0060110  40.2598801
   0.6777610   7.9997048  41.4763947  -0.4111632   9.7546797  41.1301918
  -0.9627711   9.9773340  40.0638161  -1.0158807  10.0650845  42.2466316
  -0.8195003   9.5256710  43.0776405  -1.9662938  10.3950558  42.1575623
   3.2331049  11.6622200  42.7602348   2.5672410  12.4417715  43.4823532
   4.5301385  11.5168390  42.9104080   4.9161825  10.8396254  42.2681847
   5.2749734  12.3561211  43.9277916   4.7594304  12.2064009  44.8764267
   6.6303267  11.7394753  44.1173820   6.6035156  10.6878948  44.4029770
   7.1681242  11.7171774  43.1695557   7.5070210  12.5866680  45.0514450
   7.4814920  13.6514864  44.8199043   7.1161652  12.2970705  46.5421791
   7.1124926  11.2108727  46.6330757   7.8401093  12.7162943  47.2409325
   6.1408257  12.7566299  46.7022362   9.0161533  12.2970152  44.9770164
   9.5231829  12.6470976  45.8761635   9.3033352  11.2457876  45.0004463
   9.5603228  12.8417940  44.2055283   5.3266993  13.8397541  43.5603752
   5.2277112  14.6900072  44.4297600   5.5055313  14.0968599  42.2459030
   5.8136635  13.2924805  41.7185211   5.7316513  15.4022379  41.7732239
   6.4836330  15.8150959  42.4456596   6.2275643  15.4333801  40.3114510
   5.6576915  14.7768354  39.6539574   6.0846324  16.4432240  39.9268913
   7.6179833  14.9719305  40.0093269   7.9292979  14.0108604  40.4186287
   7.8747225  14.7945547  38.4560318   8.8889418  14.4537659  38.2478981
   7.1103077  14.1312008  38.0513954   7.7060452  15.7536535  37.9663658
   8.7110891  15.8228912  40.6380234   8.6568871  15.5906210  41.7016144
   9.6840124  15.7222090  40.1570015   8.4013844  16.8596954  40.5067940
   4.4003940  16.2071800  41.9091606   4.3750191  17.2227383  42.5072327
   3.3431127  15.6168261  41.3263016   3.5138762  14.7302427  40.8736305
   2.0464711  16.2397900  41.3850708   2.1431515  17.1838284  40.8488426
   0.9522709  15.3438168  40.7414894   1.0697637  14.2919207  41.0018959
  -0.0124513  15.6452837  41.1495819   0.9598179  15.4456482  39.2650185
   0.7528688  16.4824085  38.9996834   1.9883164  15.2290192  38.9762917
  -0.0456510  14.5596313  38.5378380   0.1232276  14.3172598  37.2983704
  -1.0893713  14.1695662  39.1919708   1.5992154  16.5906925  42.8058662
   0.8959520  17.5447769  42.9944000   1.9324152  15.7749786  43.8243713
   2.3276901  14.8766613  43.5858650   1.6041285  16.0565834  45.3114090
   0.6409166  16.5666924  45.3008995   1.6398412  14.7146835  45.9607811
   2.6229565  14.2520733  45.8737335   1.5621929  14.8732080  47.0363922
   0.4671210  13.7565727  45.5418587  -0.4986751  14.2029934  45.7785988
   0.5782524  13.5728788  44.4732094   0.6495680  12.4808187  46.3205795
   1.5600321  11.9810324  45.9898720   0.7771422  12.7770805  47.3617592
  -0.3633520  11.3839588  46.2975540  -0.5088062  11.1260996  45.2485313
  -0.0215750  10.5221043  46.8707008  -1.6589123  11.9137068  46.8396034
  -1.6394804  12.4063101  47.7211151  -2.1325033  12.4498053  46.1265717
  -2.2671998  11.1229248  46.9969254   2.4740548  17.0671806  46.0123215
   1.9622468  17.9582310  46.7089348   3.8188255  17.1137352  45.7493286
   4.1006041  16.4221249  45.0693436   4.6787872  18.2092915  46.1512794
   4.6027718  18.4013748  47.2215271   6.1603165  17.9235325  45.7095337
   6.1135125  17.5331459  44.6929207   7.0628300  19.1626282  45.5797043
   6.4248371  19.8694382  45.0491524   7.3559551  19.5616169  46.5507812
   7.8963060  18.9442863  44.9120636   6.7658858  16.9254837  46.6526680
   6.9440660  17.4342899  47.6000175   6.0790577  16.1144390  46.8946838
   8.0723295  16.3063889  46.2123489   8.3037500  15.5674076  46.9794540
   7.9735222  15.9102573  45.2016945   8.9639816  16.9324894  46.2448082
   4.1237202  19.5425339  45.5056305   3.8116491  20.5270405  46.1997337
   3.7893648  19.4477119  44.2254066   3.8839884  18.6278019  43.6432571
   3.1663840  20.5781193  43.4762077   3.9511704  21.3318901  43.5398178
   3.0953867  20.2301044  41.9597282   2.5152271  19.3454990  41.6970749
   2.3289826  21.3864250  41.1947403   2.3098722  21.2693920  40.1112061
   1.3331386  21.6784306  41.5280952   2.9184835  22.3030167  41.1733360
   4.5010099  20.1388683  41.3478470   5.0970225  21.0258732  41.1331558
   5.0892954  19.5721302  42.0695305   4.5728197  19.3269901  40.0432091
   4.0260572  19.8291206  39.2450714   5.6114225  19.1241875  39.7819138
   4.2329011  18.2924404  40.0907631   1.8505055  21.1921806  43.9524422
   1.6292080  22.4251652  43.9260521   0.9666445  20.3135414  44.4048309
   1.1457611  19.3214607  44.3432541  -0.3403519  20.6875973  44.9803009
  -0.6442626  21.6371040  44.5396461  -1.3456482  19.5426826  44.6971207
  -1.6055326  19.6588535  43.6449509  -0.8441601  18.6082973  44.9491768
  -2.5602279  19.6111946  45.5818024  -3.0528038  18.6600018  45.3800430
  -2.3856890  19.7437477  46.6495399  -3.4940970  20.7334785  45.1577835
  -3.3172858  21.3740501  44.0773392  -4.3621054  21.0803127  46.0021248
  -0.1937703  21.0580769  46.4870186  -0.8555920  21.9593163  46.9088211
   0.7935967  20.5449810  47.2428207   1.3249179  19.7789574  46.8542252
   1.1796756  20.9822426  48.6589508   0.2808423  20.9062710  49.2708626
   2.2351480  20.0306053  49.2306442   1.9050157  19.0055523  49.0621834
   3.2460082  20.1223888  48.8333588   2.4204559  20.0753384  50.7972527
   3.0274224  19.2293491  51.1197319   2.8724961  21.0502853  50.9795685
   1.0467261  19.9976711  51.4584427   0.2524673  19.1821632  51.0136986
   0.7597791  20.7600346  52.3494148   1.6888037  22.3797226  48.8281212
   1.5184039  22.9517059  49.8282013   2.4819858  22.9335785  47.9176941
   2.6591280  22.2950706  47.1554413   3.1102073  24.2453632  47.8360023
   2.7239666  24.8573303  48.6511230   4.6018672  24.1238518  47.8309593
   4.8399515  23.7157803  46.8486710   5.0572453  25.1130657  47.8777580
   5.0324984  23.2050591  48.9286613   5.1206484  23.6141663  50.0933647
   5.4105921  21.9947834  48.6618652   5.5885205  21.3865986  49.4483452
   5.2075815  21.6257038  47.7438965   2.5974588  25.1230736  46.6429558
   3.0204263  26.2615681  46.5843277   1.7058245  24.6510715  45.7668915
   1.5804365  23.6504803  45.8234901   0.9483606  25.3511925  44.7959976
   0.4405985  24.5841885  44.2112007  -0.0831357  26.4270668  45.4304047
   0.3820768  27.4044685  45.5583267  -0.9593002  26.5979652  44.8049202
  -0.5996845  26.0803242  46.7267075  -1.2553481  24.9002266  47.0043030
  -1.6686885  24.2339687  46.3676300  -1.5246067  24.8852634  48.3009186
  -2.0651438  24.1070538  48.8191910  -1.0153033  25.9938488  48.8708458
  -0.9819200  26.2018223  49.8586388  -0.3531681  26.7441807  47.9017830
   0.2777954  27.6096306  48.0406456   1.8291752  26.0580082  43.6926727
   1.3100518  27.0649395  43.1118889   2.9672167  25.4684887  43.4536476
   3.1771774  24.6701374  44.0355911   4.1073852  25.8278999  42.5401497
   4.4865112  26.7900105  42.8846855   5.2761998  24.8019676  42.7186317
   5.0661573  23.8778858  42.1800613   6.5950360  25.3961868  42.2752342
   7.0386043  25.9137688  43.1257973   7.2897720  24.5827274  42.0661316
   6.5054617  25.9401283  41.3349113   5.4925318  24.5620499  44.1352692
   5.4803090  25.4599037  44.4748421   3.6400547  25.8263550  41.0407143
   2.7793665  24.9898033  40.7210274   4.2159963  26.5695152  40.1807289
   4.8215947  27.3104553  40.5037727   4.2663050  26.4555569  38.7129517
   3.9145432  25.4822750  38.3707771   3.3497746  27.5644150  38.1674232
   3.3455644  27.5163937  37.0784912   2.3289003  27.4631252  38.5357399
   3.9049571  28.9855309  38.3126984   4.1244364  29.1988525  39.3588448
   4.8257895  29.1002827  37.7408524   2.9794800  30.0731945  37.7678375
   2.7536182  29.8768482  36.7197304   2.0574865  30.0216084  38.3469467
   3.5478280  31.5259800  37.7766953   4.4722729  31.5477924  37.1996078
   2.8777311  32.2383614  37.2954597   3.9557257  32.0265198  39.1264572
   4.7998009  31.5629025  39.4309273   4.1361895  33.0198097  39.0963058
   3.2478445  31.8638382  39.8282661   5.6978464  26.5741291  38.0482483
   6.5830283  27.1969090  38.6115837   5.9197083  26.0136127  36.8866043
   4.8926525  25.3737602  36.0321503   4.2042184  26.1167984  35.6295891
   4.3502126  24.5558338  36.5063400   5.7298727  24.8254280  34.8964310
   5.6014361  25.6000862  34.1404495   5.2307258  23.9269180  34.5336075
   7.1477356  24.6157837  35.3439064   7.7591867  24.8179092  34.4644890
   7.2857065  23.5890923  35.6829758   7.2864113  25.6414013  36.4734116
   7.7981076  25.2279186  37.3424911   8.1189232  26.7707405  35.9852028
   9.3145685  26.8465137  36.2410736   7.6227903  27.9021645  35.4679489
   6.6672025  27.8240032  35.1503830   8.3767376  29.1051445  35.1263580
   9.1734934  28.8602371  34.4240036   7.5209422  30.2322426  34.5918007
   8.0603342  31.1485672  34.3519974   7.1222892  29.9219246  33.6259422
   6.3803377  30.6359367  35.6477585   5.8694062  29.7073631  35.9023132
   6.8521256  30.9702435  36.5717430   5.4549890  31.7034626  34.9710388
   4.5329261  31.3489456  34.1801147   5.3916302  32.8006401  35.5002327
   9.2042313  29.6755295  36.2899780  10.1163397  30.4307671  36.0367661
   8.8310156  29.3951397  37.5263824   8.0655069  28.7370300  37.5578346
   9.4706144  29.9265404  38.7544327   9.6537752  30.9796524  38.5411034
   8.2641239  29.9527950  39.8064384   7.7179418  29.0095158  39.8096008
   8.6303797  30.1119614  40.8206520   7.1869221  31.0326385  39.6401749
   6.1682529  30.7913704  40.3207970   7.3161325  32.0544205  38.9367065
  10.7901134  29.1087780  39.0625076  11.7016544  29.6346207  39.6962433
  10.7885771  27.8681641  38.6225090  10.1032066  27.6539993  37.9122238
  11.7586470  26.9181709  39.0606155  11.9089718  27.0561237  40.1313553
  11.1942282  25.5215073  38.7624817  11.0760431  25.2505875  37.7133217
  12.1939306  24.4906483  39.3573608  13.0699186  24.4897900  38.7087059
  12.3898554  24.8362408  40.3723869  11.7688150  23.4869728  39.3611908
   9.8362608  25.3209362  39.4170303   9.0089769  25.9105244  39.0219536
   9.5321569  24.2915745  39.2272072   9.8138933  25.5750046  40.4767685
  13.1832342  27.1543140  38.4005165  13.3462486  27.2564335  37.1264610
  14.1929274  27.1166706  39.2733879  14.0394154  27.1086102  40.2716217
  15.6113968  27.2700176  38.8861847  15.7448721  28.0232601  38.1097107
  16.4039974  27.6068478  40.1863594  16.4443130  26.7471638  40.8552513
  17.8442764  27.8481522  39.8006897  18.3442116  26.9346066  39.4788132
  17.9509392  28.5393944  38.9646835  18.5223675  28.1239147  40.6083107
  15.9013004  28.9241524  40.7908745  15.9787645  29.7889557  40.1319275
  14.8616886  28.7897930  41.0896339  16.4123077  29.1961155  41.7144585
  16.1126671  25.8446751  38.4100876  16.7746449  25.7488518  37.4259682
  15.8160439  24.8623924  39.1876373  15.3912687  25.1426277  40.0600662
  16.1691990  23.4948997  39.0270386  16.1581802  23.2804489  37.9584007
  17.7108250  23.3308811  39.3766670  18.1234665  22.4040604  38.9781303
  18.1768856  24.2577019  39.0421677  17.9537849  23.3453712  40.8436890
  17.3644810  24.1249866  41.3264122  17.6484127  22.4398842  41.3680458
  19.3864899  23.6919613  41.2127075  20.3070335  23.3676224  40.4751320
  19.5350895  24.3076477  42.3691940  20.4320946  24.5783119  42.7463188
  18.7532444  24.4667759  42.9884720  15.3284655  22.5226727  39.8349113
  14.9374323  22.8027058  40.9540939  15.1168499  21.3008690  39.3262978
  15.3504982  21.1341114  38.3579483  14.7639313  20.0964279  40.0239868
  14.5399246  20.3814430  41.0519409  13.5824442  19.4281216  39.4360504
  12.7428865  20.1029854  39.6028023  13.6749754  19.3674812  38.3516769
  13.2445059  18.0666943  40.0768967  14.0333738  17.3151264  40.1074562
  13.0169983  18.3758965  41.0970612  11.8058262  17.2541561  39.3637924
  10.5326910  18.6104355  39.1096802   9.6168442  18.0857315  38.8376198
  10.3663816  19.2055111  40.0076370  10.8864517  19.3790321  38.4225044
  16.0481262  19.2404556  40.1779289  16.8385525  19.2567062  39.2325134
  16.3793468  18.5755692  41.2937698  15.7175608  18.6766510  42.0500298
  17.4530525  17.5670071  41.5012550  17.9382286  17.2606964  40.5744972
  18.5499363  18.2454281  42.2928772  18.1372032  18.2976513  43.3003616
  19.4172039  17.5870304  42.2432098  18.9772491  19.6278133  41.8267365
  18.1036625  20.2752380  41.7506676  19.9116249  20.2061977  42.9159813
  19.3944244  20.2775288  43.8728104  20.7950840  19.5692177  42.8729095
  20.3883781  21.1564579  42.6755447  19.7973919  19.5743313  40.5568275
  20.7640877  19.0707684  40.5612488  19.2510777  19.2125607  39.6857605
  20.0034370  20.6284466  40.3711281  16.9065094  16.2185516  42.1105232
  16.3917332  16.2546864  43.2347984  17.0245686  15.1140985  41.4564819
  17.6859856  15.1209354  40.6932106  16.5841942  13.7544403  41.8872833
  15.8062859  13.7454844  42.6507568  16.1598339  13.0091610  40.6584320
  16.9610291  13.0148001  39.9194107  15.9359474  11.9764118  40.9256592
  14.9290504  13.6255541  40.0108986  14.9513140  14.7097073  39.9003716
  14.8135967  12.9944639  38.6297951  15.6558332  13.3511963  38.0369415
  14.7374010  11.9149990  38.7603683  13.8862629  13.3896236  38.2150650
  13.6434183  13.2418795  40.7802887  13.7116127  13.6524096  41.7877197
  12.7296772  13.5461674  40.2698135  13.4652777  12.1670713  40.7463226
  17.6737156  13.0373173  42.5870285  18.8577976  13.4022703  42.4663658
  17.3211498  12.0766697  43.4306335  16.3346119  11.9121847  43.5713120
  18.2630310  11.0615387  43.9054947  19.0876808  10.9743195  43.1980743
  18.8134766  11.4321089  45.2976112  19.2970123  12.3980675  45.1519470
  17.9735165  11.5003328  45.9889221  19.8276310  10.4987984  45.7174301
  20.5000305  10.6405478  45.0470695  17.5255413   9.7267761  43.9069557
  16.3374825   9.7094650  44.0730171  18.2696648   8.6037865  43.6756821
  19.2358818   8.7128296  43.4024925  17.7072563   7.2939529  43.5688858
  16.8408337   7.2265663  44.2268143  17.3118954   7.0156832  42.0975456
  18.1907463   7.0896826  41.4570427  16.7711735   6.0710979  42.1565247
  16.6397114   7.7667689  41.6826401  18.7820549   6.2668948  43.9996414
  19.9850292   6.4672203  43.9137840  18.3042488   5.2074642  44.5802002
  17.3070030   5.1806540  44.7379456  19.2135792   4.1404729  45.1122246
  19.9952507   4.6247425  45.6975212  18.3695908   3.3957372  46.1606064
  18.8813705   2.5046124  46.5240326  18.1947327   4.2415948  47.4571342
  18.0140171   5.2770243  47.1684723  17.4605427   3.7734323  48.1127968
  19.1052418   4.2551022  48.0562172  17.1447773   3.0470779  45.7975883
  17.2983608   2.2787945  45.2428322  19.7988110   3.2997913  44.0054741
  19.1055298   3.1234162  42.9875755  21.0387020   2.7234850  44.2100868
  21.7716503   2.8960681  45.4206696  21.2027416   3.0782380  46.3324013
  22.3982601   3.7783253  45.2899666  22.6999760   1.6062696  45.5065613
  22.1251030   0.7307709  45.8084259  23.5814552   1.7319723  46.1352844
  23.0578041   1.5119740  44.0600471  23.4042835   0.4975658  43.8624954
  23.8103752   2.2521615  43.7882805  21.6924267   1.8086624  43.2965584
  21.8467770   2.4065540  42.3983345  20.9703083   0.4626735  42.8384056
  21.5890255  -0.2857035  42.1648254  19.7323856   0.2191425  43.2696037
  19.3401718   0.8810527  43.9239273  18.9296932  -1.0279816  43.0053368
  19.5876961  -1.8593967  42.7525864  18.1770935  -1.4351425  44.2386246
  17.4026566  -2.1771309  44.0442009  18.8798008  -2.0428927  44.8086624
  17.6958752  -0.3300464  45.0997314  17.4646053   0.7581392  44.5744171
  17.6225643  -0.4571629  46.3939438  17.9129791  -0.8728517  41.8995934
  17.4466496  -1.8482510  41.3444176  17.7476864   0.4192207  41.4880562
  18.2220898   1.1362674  42.0180435  17.0754414   0.8356080  40.2501030
  16.4140110   0.0351770  39.9185448  16.1632423   2.0887213  40.5149994
  16.8928242   2.8933661  40.6064453  15.5107450   2.2759678  39.6621895
  15.3915091   2.1015656  41.8511391  16.1100979   1.9960603  42.6639099
  14.7895365   3.4842727  42.1633530  14.0254078   3.7104526  41.4196815
  14.2869539   3.3679962  43.1235542  15.4302216   4.3653274  42.2002983
  14.4368858   0.9185403  41.9848862  14.7738237  -0.1067227  41.8318939
  13.9325066   1.0779706  42.9379272  13.7084637   1.0394201  41.1830788
  17.9677544   1.1192510  39.0344734  18.8797016   1.8801330  39.1280212
  17.6502838   0.4364977  37.9377022  16.9481602  -0.2819181  38.0425835
  18.2657375   0.4529868  36.6310806  18.7473907   1.4154038  36.4582672
  19.3342953  -0.6662928  36.5619621  18.6603947  -1.5224875  36.5917854
  19.8298950  -0.5856072  35.5945053  20.4785080  -0.8375442  37.6059875
  21.1250515   0.1658187  38.3134575  20.9426098   1.1435159  38.1376114
  22.0900249  -0.3360949  39.0725403  22.5542965   0.2563995  39.8470078
  22.0662422  -1.6744416  38.8772087  22.7454014  -2.2689250  39.3304558
  21.0623455  -2.0285358  37.9438934  20.9952011  -3.0375087  37.5645981
  17.3384304   0.3302395  35.4021072  17.8079681   0.3592776  34.2465401
  16.0114765   0.1049050  35.5211411  15.6345224  -0.0979492  36.4359398
  15.0587101   0.0438096  34.3458481  15.3840389  -0.7994043  33.7365417
  13.6724434  -0.2246964  34.9659195  13.7514191  -1.1520544  35.5332527
  13.3923349   0.5252693  35.7056427  12.8882704  -0.1989076  34.2092781
  15.0814610   1.3439320  33.4912720  14.9445620   1.3326178  32.2431908
  14.9054985   2.5005913  34.1675682  14.9882793   2.5810542  35.1709480
  14.4405222   3.7584713  33.4849625  14.8160219   3.7354903  32.4619408
  12.9857969   3.7495432  33.1720505  12.6590004   2.8264995  32.6932030
  12.1626711   3.7992857  34.4310188  12.3060789   4.6641564  35.0787277
  11.0822115   3.7283514  34.3058167  12.3495073   2.8654108  34.9611778
  12.6543531   4.8401423  32.1983604  11.5841789   4.9810987  32.0468369
  13.0516157   5.7967319  32.5377998  13.2236958   4.7906446  31.2701950
  14.8785524   5.0703321  34.1552467  14.7187309   5.1516829  35.3274307
  15.3730221   6.0644469  33.3683357  15.4326200   5.9093037  32.3721046
  15.6532335   7.4396987  33.9327393  16.4524460   7.3327556  34.6661720
  16.1336136   8.3668585  32.8384857  15.3598537   8.5077715  32.0838051
  16.2826881   9.3859081  33.1954384  17.4016228   8.0076752  32.0666656
  18.6534843   7.9575982  32.7577171  18.7509575   8.2154741  33.8019447
  19.8688393   7.6694336  32.0853195  20.7855682   7.6199102  32.6541405
  19.8490162   7.4008040  30.7164135  20.7763710   7.3420782  30.1659946
  18.6046200   7.4701581  30.0361309  18.5926933   7.3406405  28.9639912
  17.3857670   7.7960143  30.6559067  16.4721642   7.7395811  30.0827160
  14.3644686   8.1362562  34.4973106  13.3766336   8.2867126  33.7813644
  14.3084612   8.5293598  35.7908363  15.3452244   8.1903505  36.7496223
  16.3968239   8.3718443  36.5275955  15.2442369   7.1440902  37.0381393
  15.0183573   9.0526199  37.9315720  15.4849358  10.0375185  37.9120789
  15.4224396   8.6144724  38.8441734  13.4603062   9.2634363  37.9865341
  13.3792677  10.2709846  38.3944321  13.0491209   8.4594097  38.5969200
  13.1064043   9.1864100  36.4741669  12.2205009   8.5965681  36.2388649
  12.8463058  10.6609936  35.9844437  11.8815928  11.3861732  36.3315468
  13.8038244  11.1225233  35.1936684  14.5585890  10.4738483  35.0214653
  13.7283583  12.4524622  34.4700432  13.5227833  13.2198334  35.2163544
  15.1930885  12.6688147  33.8394737  15.9675045  12.7068300  34.6055946
  15.4188728  11.8924818  33.1084251  15.0218306  13.6457758  33.3874588
  12.6164179  12.4680557  33.3763008  12.1825962  13.5597191  33.0681267
  12.2014313  11.2447205  32.9429016  12.7465420  10.4480639  33.2400398
  11.0668230  11.0582590  31.9282818  11.2136192  11.7191706  31.0740299
  10.9244928   9.6210470  31.3387718  10.7445059   8.8993750  32.1355743
  10.0643454   9.6691484  30.6709881  12.1800585   9.3191719  30.5718536
  12.4486513  10.0741158  29.8329239  13.0473375   9.2905207  31.2314854
  11.8915253   8.0246201  29.8142471  11.2447329   7.3372850  30.3595276
  11.3714218   8.2336245  28.8794155  13.2725439   7.2464509  29.5304260
  13.9456425   7.9046392  28.9810371  13.6121645   6.8990827  30.5061798
  13.0838881   6.0964918  28.6685123  13.7879658   5.3766685  28.7474880
  12.2191048   5.5938382  28.8084812  13.0319662   6.3952031  27.7050953
   9.7608671  11.4722643  32.5843582   8.9813080  12.2819004  32.0957565
   9.5555067  10.9574795  33.8131409  10.2207346  10.2298460  34.0325050
   8.3952122  11.2962446  34.6183815   7.5339384  10.8824911  34.0938606
   8.5291958  10.6287880  35.9779892   9.2092533  11.2216835  36.5896187
   7.5443625  10.6018496  36.4443321   8.8569088   9.6142187  35.7513657
   8.2074175  12.7893534  34.8564034   7.0243735  13.2260723  34.9206161
   9.2808094  13.6145267  34.9758263  10.1995201  13.2117777  34.8580780
   9.1711245  15.0935049  35.1041031   8.4963942  15.3154211  35.9309006
  10.5628872  15.7257109  35.4910278  11.1577196  15.6529665  34.5805435
  10.4784842  17.1268978  36.0528145   9.8350658  17.1135349  36.9325447
  11.5004673  17.4532909  36.2454758  10.0375338  17.7692509  35.2905426
  11.2654867  14.9672079  36.6944580  10.8934994  15.0972052  37.7107391
  11.3682747  13.8976002  36.5114861  12.2964163  15.3206797  36.7129173
   8.5563049  15.7015839  33.8780212   8.1257954  16.8985767  33.9601021
   8.5107946  15.0496035  32.6759796   8.7750988  14.0747986  32.6757584
   8.0378647  15.5897722  31.4110565   7.9898348  16.6750813  31.4999466
   8.9952307  15.1830244  30.2363815   9.0424633  14.0941038  30.2253647
   8.5712767  15.6764774  29.3618164  10.3700352  15.6838293  30.4385910
  10.3180523  16.7653961  30.3136368  10.7347841  15.3409433  31.4068317
  11.2115526  15.2173328  29.3184719  11.2635689  14.1345921  29.4327850
  10.7821579  15.4571314  28.3457336  12.5772314  15.7251692  29.3885670
  12.8448772  16.2198086  30.2274952  13.6209593  15.3781567  28.6496334
  13.5544424  14.4890585  27.7076740  12.6733742  14.0834064  27.4261227
  14.3448029  14.4344149  27.0812225  14.7813540  15.9412642  28.9019890
  15.6534367  15.8865824  28.3954506  14.8273993  16.5368481  29.7163963
   6.6033716  15.2179451  31.0524235   6.1371894  15.5131178  29.9404716
   5.8173780  14.4925766  31.8576069   6.1578884  14.2615747  32.7799911
   4.3890510  14.1646872  31.6827583   4.0420270  14.2511196  30.6530952
   4.1567211  12.7757149  32.3444633   4.5067868  12.8120327  33.3760834
   3.0871580  12.5669651  32.3680878   4.9438710  11.7008295  31.6451988
   6.0063972  11.9181662  31.5361004   4.9449730  10.7497549  32.1777000
   4.4070139  11.4206467  30.2278252   5.2969155  11.1819458  29.3818703
   3.1888843  11.4879560  29.9438000   3.5558393  15.1805210  32.4133682
   2.2858939  14.9098806  32.4502182   4.0460124  16.3188114  32.9049759
   5.0365772  16.4614887  32.7688522   3.1472044  17.4181480  33.3914948
   2.0978634  17.1419621  33.4949570   3.6313875  17.6844120  34.8414841
   4.5730190  18.2229748  34.7348061   2.9111557  18.3806248  35.2712097
   3.8564289  16.4741573  35.8472977   3.1276829  15.6887274  35.6469765
   5.3458023  16.0647545  35.7890396   5.6841230  15.8121510  34.7841415
   6.0466433  16.7551994  36.2583046   5.3675718  15.0998573  36.2956047
   3.6016486  16.9592991  37.2311935   4.2413087  17.8024464  37.4920273
   2.6027179  17.3327789  37.4564705   3.6690645  16.0472298  37.8242302
   3.1921778  18.7498131  32.5407982   4.1842928  19.0311317  31.9235325
   2.1819673  19.5600147  32.6183548   1.3674370  19.2780113  33.1447754
   2.0890517  20.8137608  31.7834282   2.2098904  20.4209785  30.7738628
   0.7177379  21.4102917  31.8696117   0.0371545  20.7245750  31.3649368
   0.4901155  21.6435413  32.9097519   0.7526048  22.5660610  31.1251869
   0.1477522  22.3361111  30.4160480   3.2110727  21.8539219  32.1373062
   3.2709296  22.2956028  33.2767220   4.0944862  22.2072353  31.2062740
   4.0788555  21.8143272  30.2759628   5.1480408  23.1957607  31.3745308
   5.3436475  23.5803490  30.3735657   4.7759767  24.0306454  31.9683647
   6.4127626  22.7094955  32.0517769   7.4295368  23.2847919  31.9296646
   6.2310319  21.6262226  32.8735924   5.3237600  21.1940308  32.9744263
   7.2581067  21.0535297  33.7368469   7.6378040  21.8129616  34.4203644
   6.7009625  19.9382172  34.6327133   6.0592113  19.3218536  34.0031395
   7.4642463  19.3069916  35.0877419   5.9727921  20.5989647  35.7507591
   4.7187624  21.0399227  35.8172951   4.0687442  20.8877735  34.9683380
   4.3908577  21.5872421  37.0689087   3.5073812  21.9311352  37.4171982
   5.5814557  21.7918530  37.7728348   5.9599357  22.5607204  38.9162140
   5.2396016  23.0817413  39.5294571   7.3273363  22.6277180  39.2444649
   7.5504117  23.1966610  40.1349373   8.3467522  21.9510212  38.4926643
   9.3859091  21.9298096  38.7860985   7.9349999  21.1785870  37.4327469
   8.6786709  20.6271439  36.8766289   6.5939541  21.1310425  36.9727249
   8.4071836  20.5180321  32.9355545   9.4952593  20.2889786  33.3742523
   8.1196127  20.1647091  31.6985474   7.1935139  20.4251595  31.3909645
   9.1179657  19.5269814  30.8294468   9.2882051  18.5725613  31.3276463
   8.4441481  19.1068687  29.5293045   9.1767836  18.6143532  28.8899593
   7.6915264  18.3340874  29.6857300   7.8236003  20.1880779  28.6600246
   6.8668656  20.4512558  29.1111317   8.4256992  21.0955639  28.6148129
   7.7516475  19.8545704  27.1809311   7.6004410  18.7220268  26.8199711
   7.8396468  20.8119068  26.2758446   7.8170671  21.7816982  26.5570927
   7.5370097  20.5803261  25.3404942  10.3348255  20.4243565  30.5815201
  11.4984407  20.0048161  30.5693226  10.1494484  21.7764072  30.5393639
   9.2003708  22.1186066  30.5867958  11.2676744  22.7217484  30.4689121
  11.8451834  22.3217564  29.6354904  10.8585634  24.0902023  29.9778595
  10.4271259  24.5853691  30.8477859  11.8583632  24.4888439  29.8058395
   9.9663401  24.0185223  28.7437000  10.4965649  23.9596195  27.4294415
  11.5734529  23.9324474  27.3521461   9.6735754  23.8247128  26.2932796
  10.0483122  23.7215958  25.2856369   8.2580814  23.9600430  26.4120274
   7.4054894  23.8167839  25.3110332   7.8552518  24.1867065  24.5478344
   7.7060008  24.2550850  27.7237186   6.6497750  24.3474178  27.9292946
   8.5765209  24.2206249  28.8522205   8.1922617  24.2990875  29.8584957
  12.1916628  22.7616653  31.6899967  13.2827549  23.3687630  31.6270351
  11.7501211  22.3178787  32.8473167  10.7637205  22.1306877  32.9571953
  12.4036303  22.5516796  34.0949669  12.7170048  23.5816879  34.2652245
  11.5304680  22.2580051  35.3410568  11.0918751  21.2857056  35.1166191
  12.4439478  22.1058617  36.5674515  13.0695848  22.9803352  36.7462730
  11.7158861  22.1505108  37.3774071  12.8796949  21.1073761  36.5320778
  10.4425430  23.3020115  35.3978615  10.9156008  24.2839203  35.4113388
   9.7482166  23.2690220  34.5582657   9.9427757  23.2162380  36.3627319
  13.7015362  21.6168652  33.9769325  13.5433521  20.4365673  33.6245499
  14.9047928  22.0953922  34.1835709  15.2397900  23.5018024  34.5810509
  14.6491938  23.7975368  35.4481392  14.9902372  24.1209354  33.7193680
  16.7300377  23.4817734  34.9873810  16.7334518  23.1590042  36.0284843
  17.1082840  24.4827690  34.7799339  17.2781868  22.4353199  34.0715523
  18.2238846  22.0006695  34.3953400  17.3182468  22.8708725  33.0731583
  16.1537876  21.3668938  34.0354576  15.9774199  20.9264030  33.0541458
  16.2723923  20.3868046  35.1673889  16.0039101  20.6880989  36.3630676
  16.7302303  19.1842365  34.8096848  16.9153786  18.9460812  33.8457870
  16.8142891  18.1482449  35.8781090  17.0944805  18.5548553  36.8498421
  15.3969564  17.4425774  35.9794044  14.7098989  18.1944580  36.3676414
  14.8610811  16.9940872  34.6141739  15.4074621  16.1348438  34.2252388
  13.8365707  16.6332836  34.7052727  14.7846127  17.8215637  33.9088135
  15.1829977  16.2987728  37.0165329  15.9333239  15.5112944  36.9459000
  15.1594648  16.7405529  38.0127144  14.2201805  15.8045931  36.8866539
  17.9974346  17.2298927  35.5883217  18.2399502  16.8575573  34.4369087
  18.5675545  16.7324085  36.7142296  18.4366512  17.2046833  37.5973625
  19.4875221  15.5448561  36.8305130  19.2847023  14.8429165  36.0216599
  21.0129147  16.0215721  36.8375282  21.2849846  16.5564213  35.9275703
  21.5048904  16.9921436  37.8711739  20.9700413  16.7953777  38.8003273
  22.5911808  17.0549259  37.9353828  21.2834663  18.0016613  37.5248566
  21.9369087  14.9826679  36.9328423  21.6220608  14.4858532  37.6915550
  19.2244434  14.7745419  38.1032639  18.7867622  15.3505020  39.1124992
  19.3961143  13.4491806  38.0956497  19.5898857  13.0331507  37.1959457
  19.6233253  12.5338497  39.2061501  18.9506607  12.8693113  39.9955101
  19.0864944  11.1297855  38.7413902  18.0284576  11.1746693  38.4832306
  19.6835365  10.7663765  37.9049797  19.2040348   9.9313946  40.0583458
  20.4566402   9.5139074  39.8544273  21.0707989  12.6579180  39.6755295
  21.9460506  13.0199337  38.8917885  21.2439480  12.4631186  40.9637032
  20.3676205  12.3337011  41.4488831  22.5577412  12.2037745  41.5989571
  23.4067402  11.9113235  40.9810791  22.9628334  13.4373913  42.5621147
  22.1495361  13.6329794  43.2609673  23.9420242  13.2399054  42.9983368
  23.1907101  14.7521696  41.8066635  24.1858425  15.1066675  42.0752563
  23.1314449  14.6750298  40.7210083  21.8990345  16.0076771  42.2766533
  22.8804054  16.8063164  43.6121407  23.7553520  17.3261681  43.2218552
  22.2082844  17.4266224  44.2050743  23.2737598  15.9903135  44.2183685
  22.3660164  10.9949274  42.5808449  21.5044975  11.0512581  43.4727669
  22.9551392   9.8729839  42.3436623  23.8598423  10.0535851  41.9325714
  22.6994171   8.6442871  42.9983902  21.6222801   8.4982681  42.9174347
  23.4836102   7.5597982  42.3749771  23.1174583   7.2718954  41.3895073
  24.5037422   7.8915353  42.1816330  23.7198925   6.2432508  43.1171455
  24.5707779   6.3929482  43.7817421  22.8772678   5.8887978  43.7108154
  24.1350174   5.0437207  42.2514992  23.5817623   4.6582823  41.2155838
  25.1835632   4.3348494  42.5947571  25.3623371   3.5304065  42.0107880
  25.6989632   4.5526137  43.4356117  23.0603828   8.7223501  44.5138931
  24.1564541   9.2367163  44.7970543  22.1630688   8.1368389  45.3715935
  21.3737869   7.6912837  44.9259300  22.3043289   7.8362679  46.7773247
  22.0079765   8.7589493  47.2762604  21.2861862   6.7995214  47.2221718
  20.2985268   7.0359406  46.8262787  21.5692158   5.8103900  46.8621521
  21.0013638   6.6444993  48.7231178  20.7548962   5.6039548  48.9343529
  21.9189224   6.8431592  49.2769432  19.9489326   7.6684947  49.1486359
  20.3104839   8.7918749  49.5841522  18.6869221   7.4092822  49.0295830
  23.6887646   7.3499932  47.2849236  24.3068542   6.3768883  46.8059311
  24.1694508   7.9750228  48.3477402  23.6122723   8.7071743  48.7644005
  25.3207531   7.4812198  49.0350227  26.2032566   7.4357338  48.3968773
  25.5539532   8.6024256  50.0958138  25.5691776   9.5813065  49.6165848
  24.7918873   8.6400385  50.8742371  26.9241104   8.4070444  50.8106651
  27.0959625   7.3424034  50.9691124  27.6249886   8.7507362  50.0499077
  27.2146187   9.3849363  52.2846642  28.2196674   8.2473030  53.1911774
  28.5366325   8.7665224  54.0956345  27.6412506   7.3693280  53.4787445
  29.1160927   7.9623485  52.6404305  25.0454082   6.0577593  49.6430969
  23.9927940   5.8036180  50.2390976  25.9688606   5.1164937  49.6115723
  26.7943459   5.4097605  49.1089058  25.9007797   3.7603669  50.1856613
  24.8851871   3.3980961  50.0261841  26.7550545   2.7571995  49.2996330
  26.6280937   2.9249647  48.2301292  27.8341751   2.9037035  49.3458138
  26.5262375   1.2936498  49.6950912  25.3530426   0.8591343  50.0230103
  27.5080471   0.5346366  49.6438560  26.1863556   3.5666842  51.6859245
  26.9798832   2.7191589  52.1347122  25.4738979   4.3327866  52.5218048
  25.1342888   5.2347569  52.2197876  25.2019939   4.0710821  53.9690666
  26.2028255   4.0854406  54.4006119  24.3272457   5.1964698  54.5808067
  23.4453201   5.2523527  53.9426994  23.8329391   4.8993220  55.9712677
  23.1213722   4.0759826  55.9089355  24.6142502   4.7551084  56.7174950
  23.2755222   5.7771225  56.2981491  25.0989418   6.5227437  54.5369072
  24.5765629   7.4393215  54.8109512  25.9970455   6.4909945  55.1537552
  25.4566116   6.6522813  53.5154419  24.6425953   2.6219397  54.1294594
  23.6443501   2.2496612  53.4780502  25.2394867   1.8947736  55.0653496
  26.0171261   2.2780838  55.5834694  24.9057369   0.5092342  55.4750671
  25.0675011  -0.2200725  54.6813164  25.7728195  -0.0180482  56.6286583
  25.6172047   0.4467717  57.6022224  25.6387596  -1.5500062  56.8074570
  24.9735546  -1.8911440  57.6006927  25.2161674  -2.1056025  55.9702988
  26.6151123  -1.9885592  57.0136299  27.2062397   0.2682576  56.3775940
  27.6848011   0.1796007  57.2050705  23.3470535   0.3582459  55.8747368
  22.6401577  -0.3181579  55.1881256  22.8601608   1.0900545  56.8627739
  23.5421543   1.5716840  57.4311218  21.5086040   1.0627694  57.4050102
  21.1295547   0.0409545  57.3870316  21.5318451   1.4682494  58.4165192
  20.5238628   1.8558490  56.4450607  19.3883514   2.0397310  56.8659286
  20.9650536   2.1733739  55.1959801  21.8705673   1.8301067  54.9090652
  20.1904984   2.8207355  54.1568413  19.9731522   3.7841115  54.6181068
  20.8575821   3.0982473  53.3406982  18.8821468   2.1247694  53.6466408
  18.7312775   0.8881694  53.5567856  17.9547272   2.9075530  53.2039375
  18.2246456   3.8766046  53.1134758  16.8021145   2.4950845  52.5327225
  16.2456245   1.8007475  53.1622658  15.8352871   3.6980252  52.3983917
  16.3540974   4.6447926  52.2481575  15.2533216   3.6335862  51.4790077
  14.8244085   3.7787449  53.5835190  14.5127373   2.7916067  53.9248657
  15.4764042   4.6799626  54.7679901  16.0465927   3.9913189  55.3914909
  16.0565281   5.5241518  54.3952942  14.5793152   4.9885082  55.3047676
  13.5281038   4.5763984  53.1231918  12.9843521   4.7249951  54.0561218
  13.8310080   5.5006299  52.6311111  12.8364086   4.1636024  52.3888512
  17.1019077   1.8805414  51.1547928  18.0259666   2.3117814  50.4502296
  16.2965832   0.8779119  50.7966995  15.7015619   0.5113550  51.5258675
  16.2892056   0.2611350  49.4331589  17.2101555   0.4839213  48.8943443
  16.0509205  -1.2286382  49.6664886  15.0617781  -1.3685914  50.1025047
  15.9255791  -1.6311570  48.6613159  17.0368328  -2.0175254  50.5470314
  16.7626534  -1.6656350  51.5415688  16.9534264  -3.1041107  50.5252190
  18.5031395  -1.5388253  50.3940887  18.8499718  -1.8285186  49.4021797
  18.5215645  -0.4651777  50.5812836  19.4003658  -2.3683317  51.4302368
  19.0264645  -2.2397099  52.4459915  19.3455982  -3.3736949  51.0126915
  20.8166370  -2.0071855  51.4785690  20.9615116  -1.0224705  51.6501732
  21.2010326  -2.6386356  52.1667671  21.2973404  -2.1856949  50.6084213
  15.1738424   0.7904043  48.5570793  14.0864611   1.0449243  49.0570412
  15.2998610   0.7027731  47.2345123  16.1225452   0.2180367  46.9053879
  14.2863007   1.1571556  46.2172546  14.7426128   1.3261693  45.2419014
  13.2627430   0.0046806  46.0346603  12.7709455  -0.2266401  46.9795036
  12.4795179   0.1463639  45.2899551  14.0138416  -1.2862922  45.6473389
  14.6113110  -1.2081445  44.7390289  14.5698204  -1.6139332  46.5257683
  12.9917746  -2.3975403  45.3647118  12.1996107  -2.4419718  46.1121101
  12.4970446  -2.2128940  44.4111671  13.5630465  -3.8491352  45.1314468
  12.6305017  -4.3894520  44.9685974  14.2775145  -3.8475175  44.3082619
  14.1050529  -4.4933162  46.3632736  14.3740730  -5.4584227  46.2355919
  14.9959440  -4.1096816  46.6447678  13.5426979  -4.3824186  47.1948738
  13.6600370   2.5320578  46.5990105  12.4701405   2.6268334  46.7870865
  14.5089169   3.5288041  46.7816505  15.5045385   3.3592525  46.7721863
  14.0818157   4.8589468  47.2779999  13.0134592   4.8583632  47.4941406
  14.6682119   5.0979023  48.6726341  14.6821003   4.1315179  49.1766243
  15.7026358   5.2842159  48.3839188  13.9649191   6.4984331  49.5707855
  14.9337463   7.3169823  49.1509666  14.3543730   5.9142714  46.2156639
  15.4271107   5.9038339  45.5237083  13.4259949   6.8040109  45.9475250
  12.4994650   6.5990524  46.2934036  13.5816135   8.0227947  45.1781654
  14.5905285   8.0802813  44.7696495  12.5730324   8.0118666  44.0121040
  11.6263618   7.6118560  44.3753014  12.1199141   9.3606243  43.3528862
  13.0211058   9.9600210  43.2237167  11.7079554   9.1193342  42.3730011
  11.3977823   9.8639612  43.9957542  13.0299644   7.0535655  42.9113922
  13.5136833   7.5986247  42.1008186  13.7167807   6.2539825  43.1889839
  11.8060904   6.2543430  42.2788925  11.9884262   5.8575253  41.2801971
  11.5658226   5.4054799  42.9190521  11.0148277   6.9915328  42.1426773
  13.3144169   9.2709990  46.0797997  12.3957539   9.2602234  46.9238815
  14.0612955  10.3292131  45.9524155  14.7785234  10.1925249  45.2545624
  13.9157181  11.6140738  46.5588036  12.9030209  11.7297716  46.9450188
  14.8123989  11.7722921  47.8453369  15.7079134  12.3281364  47.5675087
  14.3236847  12.3300009  48.6442261  15.2540302  10.4919596  48.5230179
  14.4566345   9.7811623  48.7398758  15.8357172   9.9877825  47.7513046
  16.1285782  10.6124964  49.7596550  16.9463234  11.3153791  49.6004410
  15.5832129  10.9343433  50.6468391  16.8222866   9.3481550  50.0342064
  17.1572571   8.8006859  49.2543526  17.1811218   8.9287758  51.2401810
  16.9576073   9.6165991  52.2950630  17.0159264   9.1140795  53.1692352
  16.7852859  10.6108198  52.2511368  17.6840706   7.7942233  51.4400978
  17.9956684   7.5106812  52.3580399  18.0818748   7.4000068  50.5995979
  14.1654558  12.6854210  45.5643120  14.8262777  12.5205688  44.5532532
  13.5779161  13.8632011  45.7557983  13.0399857  13.8833895  46.6103897
  13.6749973  15.0410604  44.9471474  14.5214977  14.9311676  44.2693100
  12.3942118  15.0973186  44.0042076  12.2037554  14.1276941  43.5441437
  11.1457005  15.4697571  44.7953873  10.2864704  15.4902906  44.1250191
  10.8177900  14.8230038  45.6091957  11.3485289  16.4511814  45.2240639
  12.6190538  16.0125904  42.8381310  11.8230839  15.7806435  42.1305084
  12.4422951  17.0609245  43.0786552  13.5955248  15.7389288  42.4384880
  13.8343582  16.3619022  45.7546349  13.4231558  16.4779358  46.9015923
  14.5034800  17.3284760  45.0718918  14.9350796  17.0474911  44.2030602
  14.6308336  18.7027225  45.5611916  13.9808979  18.8290215  46.4270630
  16.1582470  18.9700623  46.0786972  16.1763210  18.6593399  47.1233177
  16.7866020  18.2667675  45.5322075  16.7586727  20.3532543  45.7521019
  17.7764168  20.2702541  46.1334305  16.8386326  20.6186485  44.6979332
  15.7706070  21.6247540  46.5413895  16.3834286  21.4031181  48.2131882
  17.4723034  21.4471798  48.2357559  16.0235806  22.2032223  48.8600578
  16.1587410  20.4236965  48.6355019  14.2205486  19.5907116  44.3957253
  14.6604786  19.4018211  43.3020096  13.3677893  20.5897369  44.6510048
  13.0241785  20.5891399  45.6007576  13.0099926  21.7744999  43.8264999
  13.5600414  21.5930729  42.9031181  11.5619974  21.7019844  43.5030060
  11.4578905  20.8859901  42.7878723  11.0153008  21.5139027  44.4270439
  11.0059414  22.9028740  42.7893753  10.8825645  23.6766338  43.5471153
  11.7809200  23.1502628  42.0639038   9.4977837  22.8236504  41.8106728
   8.2913141  22.1224098  43.0208397   8.6456375  21.2156811  43.5111465
   7.9936523  22.9162006  43.7059631   7.3658066  22.0357018  42.4516068
  13.4424438  23.1617222  44.3425407  12.9290524  23.5705185  45.3856087
  14.3196831  23.8366489  43.5975075  14.7309313  23.3296928  42.8268089
  14.7348928  25.1957645  43.9424515  14.6543484  25.4760456  44.9927177
  16.2358990  25.3247147  43.5949974  16.3876705  25.3465672  42.5158386
  16.9359035  26.6721973  43.9218674  16.5420475  27.5350513  43.3847847
  16.9047775  26.9535751  44.9744606  17.9962425  26.6313915  43.6726379
  17.0078278  24.2684460  44.1965752  16.9803352  24.3185101  45.1548729
  13.8692789  26.1925621  43.1663475  13.9371109  26.1802025  41.9194260
  13.2405958  27.1534595  43.8719711  13.3248854  27.1545372  44.8784485
  12.1915340  27.9896851  43.3316422  12.4542856  28.2043381  42.2957878
  10.8439322  27.2043762  43.2878342  11.0514727  26.4073582  42.5738335
  10.3663359  26.7391853  44.6269417  11.1176214  26.0509968  45.0143318
  10.3313637  27.5270691  45.3793488   9.3732452  26.2986298  44.5386887
   9.8066368  28.1395245  42.5643311   8.8416414  27.6458416  42.4495850
   9.5640297  28.9029274  43.3035583  10.1619034  28.5341568  41.6124115
  12.0610504  29.3342361  44.0811386  12.3110104  29.3953323  45.2586441
  11.6965904  30.3951244  43.3854485  11.4297428  30.3343925  42.4132309
  11.3915195  31.6877289  44.0781479  12.1447258  31.8937302  44.8386383
  11.2539892  32.7883682  43.0524406  10.7367907  32.4295654  42.1625710
  10.6790037  33.5986633  43.5006714  12.5984249  33.3765106  42.6390953
  13.0844793  33.5335007  43.6020126  13.2117052  32.7835579  41.9605713
  12.4591608  34.7757034  41.9812584  13.4667730  35.3951836  41.7299156
  11.3076553  35.3408546  41.8118668  11.2892675  36.2213478  41.3174019
  10.4585056  34.9084320  42.1466103  10.0592604  31.6632252  44.8635330
   9.0594311  31.1849728  44.2718048  10.0760574  32.1196480  46.0972290
  10.9615641  32.4976921  46.4022789   8.8540716  32.2269897  46.9202118
   8.0128002  32.4296303  46.2574120   8.4009008  30.8986263  47.4921188
   8.3158808  30.1923542  46.6662521   9.2911301  30.2019253  48.5606689
  10.2977629  30.1044846  48.1541023   9.3268490  30.9629230  49.3402252
   8.8777084  29.2123222  48.7552681   7.1630707  31.0725155  48.0951614
   6.4994764  31.0242405  47.4031258   8.8480253  33.3112869  47.9400024
   9.8691387  33.6808815  48.4597244   7.6402402  33.8766479  48.2843742
   6.8264079  33.7117348  47.7094154   7.4914546  34.8997383  49.3657951
   8.4846020  35.3238068  49.5138702   6.5122366  36.0370026  48.9794846
   6.4959927  36.1663895  47.8973122   5.5079494  35.7408867  49.2825089
   6.8576775  37.4498863  49.6159935   5.9039359  38.1684113  49.7874298
   8.0130758  37.8233070  49.9640427   7.1972070  34.3162003  50.7185669
   7.0909123  35.0756874  51.6786575   7.0454268  32.9859848  50.7549515
   7.0632353  32.5340767  49.8518677   6.7017865  32.1011353  51.8949509
   5.9203262  32.6459846  52.4246330   5.9745126  30.7975292  51.3674049
   6.7325845  30.2886257  50.7720528   5.5371094  29.9709415  52.6292801
   4.9931011  30.6861172  53.2462730   4.8891678  29.1601372  52.2963104
   6.4270020  29.5508327  53.0980034   4.8040233  31.0167999  50.5179520
   4.1317430  31.7167702  51.0141182   5.0364771  31.5310631  49.5854301
   4.3164859  30.1481609  50.0753899   7.9263926  31.8517418  52.8187370
   8.9677010  31.4182072  52.2805252   7.8757796  32.1403236  54.1093597
   6.8989539  33.0631943  54.7956619   5.9732423  32.5148811  54.9703445
   6.6896615  33.9752655  54.2367134   7.2902374  33.2818832  56.2106438
   6.4485703  33.1973991  56.8980713   7.7227941  34.2627945  56.4076462
   8.2985773  32.1917610  56.4619141   7.7709713  31.3206844  56.8504448
   9.0048304  32.5332909  57.2186623   8.9056463  31.8484745  55.1360474
   9.7716312  32.4989929  55.0135956   9.4011106  30.3997631  55.1848450
   8.7542620  29.4728374  54.7363014  10.6421938  30.3638191  55.7109566
  10.9998913  31.2265053  56.0955658  11.4864168  29.1592884  55.5822716
  11.6919775  28.8473301  54.5582962  12.8036671  29.3805504  56.3089066
  13.2699490  30.3034039  55.9638977  12.5681105  29.5029907  57.3660812
  13.7835436  28.2458496  56.1799049  13.3411007  27.4988213  56.8389130
  13.6773243  27.8459568  55.1714897  15.2225819  28.5879154  56.5587769
  15.4954157  29.0092144  57.6636200  16.1465912  28.4290619  55.6114960
  17.0590782  28.8300915  55.7747269  15.8056936  28.2033234  54.6879539
  10.7321138  28.0690060  56.3078270  10.6536808  26.9366398  55.7959480
  10.0805569  28.3841705  57.4038544  10.0534382  29.3404026  57.7278671
   9.4231033  27.4347439  58.3978958   9.9677639  26.4917088  58.4440231
   9.3570604  27.9824200  59.8464432   8.7185097  27.4066086  60.5163651
  10.3421659  27.8614902  60.2970505   8.8399782  29.4380665  60.0706596
   8.7440014  29.8289108  61.2667694   8.6114292  30.1894131  59.1104889
   7.9834085  27.0767078  57.9664536   7.3972154  26.1309509  58.5593681
   7.4480691  27.7261791  56.9462547   8.0413675  28.3768959  56.4516182
   6.0639215  27.5810852  56.4781418   5.4804649  27.0219955  57.2096481
   5.4485221  28.9454250  56.3718948   6.0264087  29.6237183  55.7441521
   4.4604359  28.8870716  55.9154091   5.3043704  29.5465012  57.7896309
   4.6560564  28.8506775  58.3221893   6.2824769  29.5289059  58.2703667
   4.6954374  30.9907150  57.8399963   4.2021532  31.5345974  56.8525963
   4.5575871  31.5891571  58.9956131   4.9555278  31.1790619  59.8284187
   4.0421433  32.4577065  58.9889679   5.8623009  26.9105854  55.1189423
   4.7946596  26.7188663  54.4932861   7.0042925  26.4492302  54.5289879
   7.8405833  26.8417931  54.9371719   7.1477876  25.4392452  53.3525009
   6.2883692  25.6638870  52.7208099   8.3800812  25.7589817  52.5511932
   9.2420397  25.8484631  53.2123451   8.6742992  24.7624931  51.4735222
   9.1600065  23.8718567  51.8722115   7.7726574  24.5365620  50.9042282
   9.3938580  25.1460896  50.7502022   8.4034653  27.1621437  51.8808517
   7.6760569  27.1679783  51.0690956   8.2195778  27.8305569  52.7219849
   9.7473316  27.6215267  51.3891068   9.5445633  28.6924820  51.3826752
  10.5655870  27.3655434  52.0621834   9.9154110  27.3995209  50.3352737
   6.8837290  23.9968529  53.7552643   7.3716316  23.6301460  54.8263855
   6.2789960  23.1439743  52.9117012   5.8831463  23.4182682  52.0239143
   5.9792972  21.7166290  53.3701668   6.3413048  21.5913162  54.3906326
   4.4316840  21.5092564  53.5465355   3.9754801  21.9396172  52.6550369
   4.2078600  20.4560070  53.7158623   3.8864913  22.2477913  54.7994957
   4.3679109  21.7890091  55.6631241   4.3447227  23.2276154  54.6650734
   2.3790326  22.4558601  54.8656044   2.2041602  23.0644474  55.7528152
   1.9684223  23.0578117  54.0549545   1.7233795  21.2267914  54.8240204
   1.4939547  20.8210087  53.9280243   1.1624151  20.5186615  55.8505592
   1.3743162  20.7517757  57.1327858   0.6663695  20.3718681  57.7448196
   1.7822171  21.6557217  57.3240967   0.3049064  19.5430737  55.5683556
  -0.1527926  19.0016460  56.2877083   0.2140547  19.2966843  54.5930939
   6.6221995  20.6856499  52.4441948   6.3781633  20.7042446  51.2757645
   7.4462786  19.8505135  53.0518341   7.6232677  20.0879269  54.0174484
   8.0811939  18.7212124  52.4319305   8.3457956  18.9567852  51.4011078
   9.4453936  18.5566864  53.1156654   9.3782501  18.1632938  54.1299820
  10.0636139  17.8765488  52.5297279  10.1525860  19.8596611  53.2362823
  10.7042856  20.5790787  52.1269722  11.1727781  21.7301006  52.5744247
  11.4756460  22.6067944  52.0211830  10.8764505  21.8538208  53.9007912
  11.1644945  22.6623344  54.4331779  10.2862511  20.6639481  54.3525505
  10.0192347  20.4085064  55.3673668   7.1135764  17.5285225  52.3739853
   6.3590961  17.3537540  53.3310242   7.2373734  16.6681919  51.4124298
   7.9955196  16.8121777  50.7608299   6.2457643  15.6108179  51.0803375
   5.5390534  15.5484715  51.9078484   5.4151325  15.7271471  49.8100510
   6.0513401  15.5920935  48.9353523   4.2107668  14.7726202  49.6306038
   4.6080585  13.7576275  49.6236954   3.5281718  14.8369694  50.4779663
   3.6966107  14.9052172  48.6786766   4.8366337  17.1190090  49.7211876
   4.1505828  17.2195606  50.5622063   5.5949059  17.8880386  49.5738182
   4.2395024  17.2538986  48.8193359   6.9389381  14.2925835  51.0846977
   7.4421248  13.8353052  50.0870247   6.8845592  13.5578537  52.2154007
   6.4711008  14.0762491  52.9772530   7.3322878  12.1817389  52.3189735
   8.0387325  11.9210615  51.5308800   8.2094450  12.0618362  53.5564117
   7.7042880  12.5656290  54.3804893   8.4356461  11.0304031  53.8267441
   9.4878387  12.9423590  53.4838066   9.4867640  14.3734426  53.6132431
   8.5316725  14.8328104  53.8210449  10.7520084  15.0474253  53.5927963
  10.7227440  16.1251526  53.6564140  11.9667025  14.3678837  53.4554214
  13.1552181  15.0326576  53.7106247  13.9172096  14.4504328  53.6660919
  12.0052929  12.9430180  53.3156471  12.9212351  12.3746290  53.2494392
  10.7654343  12.2500486  53.2271919  10.6887817  11.1886177  53.0431023
   6.2183218  11.1212721  52.2603683   5.1183305  11.3462744  52.7850227
   6.4383116  10.0316343  51.5884628   7.3034859   9.8780575  51.0904808
   5.4271560   9.0733652  51.0588722   4.5696931   9.0717840  51.7318192
   5.0659933   9.3531799  49.5960770   5.9523745   9.1577902  48.9925423
   4.3957376   8.5926924  49.1954231   4.3945460  10.6435919  49.1929817
   5.0041118  11.5276594  49.3799400   3.9187653  10.6371584  47.7251625
   4.7715654  10.4535503  47.0716171   3.4942434   9.6597910  47.4957390
   3.2456524  11.4662542  47.5069427   3.1335137  10.8729534  49.9976959
   3.4907176  10.8201180  51.0261459   2.6646528  11.8107338  49.6996384
   2.5206480   9.9907885  49.8125305   5.9544835   7.6157327  51.1443405
   7.1759195   7.3034730  51.2187271   4.9763837   6.7104149  51.2315292
   4.0253377   7.0069089  51.3979759   5.2550220   5.2510982  51.2029877
   4.3066559   4.7555480  51.4106789   5.7025275   4.7893705  49.7575722
   6.6023722   5.3779569  49.5788345   5.9610090   3.7338154  49.6733665
   4.6280217   4.9848967  48.6123390   4.2258039   5.9972830  48.6496849
   5.0811510   4.8397608  47.6316719   3.3859973   4.1252551  48.6776466
   3.0083361   3.3947573  47.7242661   2.6374536   4.2245893  49.7042770
   6.0916882   4.8020201  52.4454727   6.0725193   5.4225678  53.5127220
   6.9288139   3.7882743  52.2223434   6.9775052   3.3727350  51.3030739
   7.7799206   3.2072909  53.2769394   7.2537751   2.8924553  54.1781311
   8.4410849   1.9493070  52.6786995   9.2556629   2.1949291  51.9973526
   9.0186186   1.4685072  53.4682503   7.3783464   1.0018119  52.0697975
   6.8261018   0.6331956  52.9342346   6.7492185   1.5142378  51.3419838
   8.0268011  -0.2121215  51.4103699   8.9455376   0.0977580  50.9123764
   8.3031321  -0.8962142  52.2127228   7.0896702  -0.8519382  50.4041214
   6.1482568  -1.0695832  50.9085732   6.8458972  -0.1745330  49.5857086
   7.6431031  -2.0811915  49.7062645   8.0274820  -2.8190815  50.2788658
   7.0047913  -2.4161081  48.9988098   8.4700708  -1.8727281  49.1651840
   8.8420496   4.2110686  53.7789993   9.3605137   4.0015292  54.8614769
   9.2230396   5.1443005  52.9870529   8.7502117   5.0557494  52.0989685
  10.2093105   6.2295427  53.1288414  11.1058273   5.8759899  53.6381149
  10.4904566   6.8369827  51.7296562  11.0261965   6.0365262  51.2194176
   9.5965433   6.9976020  51.1269798  11.0465879   7.7744231  51.7248917
   9.6131821   7.3658104  54.0107536  10.2382784   8.3895483  54.1360550
   8.3833313   7.2335773  54.5972710   7.7883725   6.4411221  54.4019814
   7.7670507   8.3457279  55.3445091   7.9882908   9.1901045  54.6916847
   6.2274308   8.2066669  55.4449997   5.9296207   8.1550913  54.3977394
   5.7990594   6.9999528  56.2787476   5.9836092   7.0798812  57.3500366
   4.7272334   6.8873358  56.1156349   6.2315917   6.0751181  55.8970528
   5.4578581   9.4115973  56.0066681   5.7533665  10.2716179  55.4057159
   4.3924437   9.1853609  55.9641228   5.7628465   9.6161146  57.0329514
   8.5273571   8.5525494  56.6538734   8.3422470   9.6164618  57.2695045
   9.4077168   7.6146035  57.1241341   9.5412521   6.7287354  56.6577530
  10.1452351   7.6453013  58.3635750   9.4133806   7.8430104  59.1467743
  10.7232847   6.2464075  58.6112556  11.2191563   6.2294545  59.5817833
   9.6741104   5.1676717  58.6734200   9.1455469   5.1186943  57.7214127
  10.0436764   4.2141957  59.0507889   8.9945908   5.5165119  59.4510193
  11.8161097   5.8551769  57.6466827  12.3718681   5.0688376  58.1574669
  11.3930817   5.3776407  56.7628784  12.3623190   6.7597432  57.3792572
  11.1556492   8.7769890  58.3653488  11.6188002   9.1518021  59.4305229
  11.6271963   9.1791973  57.2608452  11.2192717   8.6722221  56.4883995
  12.5510340  10.3041058  57.0029869  13.4683428  10.0579815  57.5378418
  12.8707151  10.2412691  55.5160141  11.9339428  10.4868326  55.0157547
  13.5938492  10.9967356  55.2086945  13.3567696   8.9530506  54.8436165
  12.7665291   8.0905609  55.1531754  13.2989750   9.0728741  53.2831268
  12.2582188   9.2578402  53.0172081  13.8769369   9.9606276  53.0263023
  13.7793274   8.1740932  52.8964005  14.8078232   8.6441526  55.1755371
  15.0577326   8.5290852  56.2302475  14.9946575   7.6488109  54.7724342
  15.3948641   9.4282837  54.6973915  12.0473375  11.7533245  57.2872238
  12.8661985  12.6742392  57.4191818  10.6779795  11.9479980  57.2792969
  10.0251703  11.2415257  56.9713402  10.0641069  13.3024826  57.2789650
  10.2972584  13.7891264  56.3319092   8.5248051  13.0807495  57.4207420
   7.9222970  13.9530487  57.1674118   8.2607527  12.3827982  56.6262360
   7.9859195  12.6087685  58.7482681   8.5054541  11.7153578  59.0946808
   8.1968069  13.3598137  59.5095596   6.4858193  12.3715725  58.6850357
   5.8556671  13.2470732  58.5284882   6.3714361  11.6468630  57.8789177
   6.0006018  11.8856831  59.9773026   5.4560752  12.6056738  60.4302979
   5.8704691  10.7024679  60.4107857   6.4371586   9.6794100  59.7930603
   7.1401515   9.8929691  59.1000290   6.3117003   8.7142210  60.0628242
   5.1689968  10.3680859  61.3944206   5.3266993   9.4476452  61.7791557
   4.7896838  11.1008797  61.9768562  10.5851660  14.2190571  58.4099274
  10.7785244  13.7126379  59.5562744  11.0208149  15.4889774  58.1698761
  11.3182497  16.0854778  56.8624611  10.4030046  16.2626038  56.2976151
  11.9972506  15.4089613  56.3434410  12.0959148  17.4048424  57.0722656
  11.6360855  18.1904392  56.4726868  13.1547375  17.2407722  56.8720741
  11.8996792  17.7488308  58.5707588  11.0581617  18.4272861  58.7109261
  12.7436600  18.2413330  59.0537033  11.5390663  16.3565350  59.1758194
  12.4918585  15.9179411  59.4723473  10.7023106  16.4564571  60.4873772
  11.3086948  16.4720078  61.5574150   9.3419352  16.3664112  60.4398994
   8.9325256  16.2554760  59.5232887   8.4321756  16.3401642  61.6137199
   8.7658129  17.2576389  62.0985222   6.9036946  16.3457432  61.2701836
   6.6557922  15.3926468  60.8030128   6.2745180  16.3766937  62.1597252
   6.4150887  17.5177593  60.4363022   6.9249444  18.5977631  60.6936684
   5.3067546  17.4099770  59.7959328   8.6639214  15.3039122  62.6515121
   8.4511623  15.6134348  63.8325500   9.0855818  14.0602999  62.3266487
   9.4548969  13.9184456  61.3973579   9.5150595  13.0601606  63.3323326
   8.6576252  12.9654741  63.9986229   9.7480764  11.6661911  62.7217140
   9.9414797  11.6465750  61.6491890  10.6927671  11.3168726  63.1384163
   8.6679506  10.5807381  63.1329460   7.6731048  11.0206442  63.0631981
   8.6467609   9.3842926  62.2080879   8.7083540   9.8044548  61.2042122
   9.5454607   8.8018808  62.4111557   7.7021322   8.9071646  62.4691162
   8.8995819  10.0654993  64.5607452   8.7907763  10.8213406  65.3385315
   8.1343069   9.3185234  64.7716446   9.8404884   9.5152979  64.5521317
  10.8083363  13.4421825  64.0914459  10.7994967  13.4728031  65.3032837
  11.8293915  13.8082552  63.3163528  11.8931990  13.6229410  62.3255539
  13.0153675  14.3957520  63.9227142  13.4581261  13.6706934  64.6056137
  14.1965790  14.6533098  62.9575157  13.9693031  15.4633074  62.2644386
  15.1151638  14.8917780  63.4936447  14.3427820  13.5630426  62.0487480
  14.5469913  12.8325891  62.6372528  12.6683493  15.6086569  64.8105240
  13.2562876  15.6725130  65.9210587  11.8220215  16.5116291  64.4187164
  11.4934711  16.3527508  63.4769516  11.3812218  17.7069302  65.1349487
  12.2974644  18.2257538  65.4167786  10.6220474  18.5942078  64.1413193
  11.1971817  18.6710777  63.2185974   9.6302385  18.1680775  63.9902000
  10.3635588  20.0236263  64.7286072   9.9028559  19.8795338  65.7058945
  11.5505114  20.9306164  64.9425354  12.2101421  20.6544571  65.7651749
  12.0960932  21.0423298  64.0055389  11.2038279  21.9467087  65.1308899
   9.3127069  20.7009907  63.8547783   8.4705830  20.0440731  63.6370926
   8.8696880  21.5756264  64.3310623   9.7963085  20.9377003  62.9070435
  10.6392679  17.3966923  66.4628372  10.9870872  18.0010490  67.4686508
   9.6589766  16.4921227  66.3805847   9.4451399  16.1116505  65.4697495
   8.8106833  15.9712486  67.4394531   8.2668600  16.8393593  67.8119278
   7.8223896  14.9303246  66.9549103   8.2874222  14.4461117  66.0961990
   7.1637464  13.8929815  67.9009399   6.3480659  13.3162146  67.4649277
   7.9955931  13.2197218  68.1079483   6.7833424  14.4611988  68.7497787
   6.8017621  15.6652660  66.4219131   7.2496829  16.2786198  65.8347473
   9.6450815  15.3978662  68.6387787   9.4317694  15.8042755  69.8746948
  10.6973934  14.6106567  68.3751678  10.8235006  14.3060055  67.4205017
  11.5404444  13.9416094  69.3175964  10.9055023  13.2956018  69.9239120
  12.4865999  13.0721722  68.5195312  12.9079552  13.6743689  67.7145996
  13.2955027  12.7537603  69.1771011  11.7188244  11.8149586  68.0448990
  11.4164314  11.2743425  68.9417725  10.7721930  12.0554972  67.5610199
  12.4720993  10.9009628  67.0970230  12.6160212  11.4658051  66.1759720
  13.4093227  10.6365538  67.5867157  11.6040783   9.6215992  66.7241287
  11.2426348   9.0505390  67.5793228  10.6505070   9.9522848  66.3124847
  12.3942842   8.7429132  65.8129120  13.2101965   8.5943756  66.3893890
  11.8265038   7.9196606  65.6715240  12.7769012   9.0828829  64.9422073
  12.1837864  14.9440985  70.2578659  12.2401562  14.7805252  71.5126953
  12.7683945  16.0278969  69.6248474  12.6405544  16.1175823  68.6269913
  13.2835569  17.1600418  70.3414841  13.9035959  16.7181149  71.1214523
  14.1319036  17.9712601  69.2918167  13.6386261  18.2377586  68.3570633
  14.4890108  18.9152927  69.7033768  15.3953323  17.1399593  68.9998322
  16.3305569  17.1879101  69.7596207  15.4101477  16.3096237  68.0033417
  14.6309023  16.2490063  67.3636551  16.2687912  15.8863287  67.6813889
  12.2707596  18.1766682  70.9304962  12.5430002  18.8631706  71.9061584
  11.1633654  18.5465260  70.1994629  11.0791893  18.1880226  69.2589874
  10.2907524  19.6738014  70.4786682  10.8253536  20.3264713  71.1688309
   9.9556112  20.5278053  69.2502747   9.2558556  21.3349056  69.4671555
  11.1937981  21.1662598  68.6734314  11.9575405  20.3894482  68.6364670
  10.7973404  21.5438042  67.7308960  11.5735083  21.9630413  69.3130112
   9.2926769  19.7718296  68.2396317   9.9879465  19.2543926  67.8267670
   8.9424343  19.3628712  71.1806488   8.2666817  20.2945118  71.5803299
   8.5908699  18.0954914  71.3619156   9.2047901  17.3892040  70.9819641
   7.2086396  17.7153702  71.7572403   6.7774496  18.6371441  72.1477585
   6.3446531  17.1454430  70.5604324   6.3757401  17.9322643  69.8067474
   6.7412958  16.1568851  70.3290482   4.8616109  16.8478203  70.7705078
   4.4070406  16.5830746  69.8158493   4.7312584  15.9906101  71.4310379
   4.0363593  17.9522209  71.3802948   4.4101124  19.1279240  71.3492737
   2.9065990  17.7154484  71.9839859   7.1329470  16.6825466  72.8762741
   6.3022985  16.7648048  73.8128815   7.9965038  15.6163054  72.8946838
   8.6768942  15.4452438  72.1681137   7.8827190  14.4011469  73.7843704
   6.8549657  14.1066151  73.9966736   8.5042448  13.2348995  72.9226685
   9.5132370  13.5119410  72.6172485   8.6346607  12.3909397  73.6000366
   7.7040243  12.7619591  71.7697296   7.3916664  13.5764627  71.1161880
   8.3014088  11.6834164  70.9288101   7.5747943  11.3002968  70.2123260
   9.1208658  12.0722637  70.3243408   8.5754271  10.9277945  71.6650467
   6.4769783  12.0694895  72.3214188   5.7825556  12.7382460  72.8299942
   5.9142694  11.5332041  71.5573120   6.7767439  11.2762508  73.0062637
   8.5231047  14.6663361  75.1287155   7.9263082  14.3998451  76.1630478
   9.7048683  15.0877686  75.1983032  20.5333405  12.0499649  31.0777302
  20.1100121  11.0506735  31.1534882  21.2282467  12.3332653  31.8653679
  20.0329380  13.0220270  30.3051548  20.5468922  14.4577675  30.2806282
  20.0988541  15.2912283  29.5228653  21.3460674  14.8329248  31.0742989
  19.0144291  12.6642952  29.5393391  17.7529526  12.1424541  30.0760670
  17.7693729  11.6269264  31.0441341  17.2313957  11.1528540  29.0573368
  18.0045071  10.5716553  28.5593090  15.8934488  10.8509531  28.9414730
  14.9676857  11.7040472  29.6516647  13.9086237  11.4547186  29.6267471
  15.3584852  12.8770390  30.2380447  14.6704187  13.5774183  30.7066174
  16.7921677  13.3618488  30.1785774  16.9137135  13.8789396  29.2188721
  17.0067291  14.2896776  31.2778740  16.4233418  15.0326881  31.0447979
  15.3813095   9.8029776  27.9679146  16.1699181   9.1370659  27.3064804
  14.2419348   9.7815437  27.7561150  39.0487366  19.3810673  44.4631310
  39.6174545  18.9255810  43.6552811  39.1287766  20.4660091  44.4687080
  38.0607109  18.7572231  45.1899071  37.2603416  19.5141621  46.2409630
  37.1590271  20.7371216  46.2808037  36.6684074  18.8470669  47.0758438
  37.8983536  17.4291992  45.0694427  37.0376663  16.9135895  43.9523964
  36.7598763  15.8616047  44.0915070  37.9369125  17.1567631  42.6950417
  38.7735939  16.4663448  42.6124687  37.6729546  18.1615887  41.8442039
  36.5534210  19.1102047  42.1655884  36.4862099  19.9270706  41.4496193
  35.6411095  18.9122925  43.1238708  34.9641266  19.7100601  43.4218407
  35.6588898  17.6500034  43.9899178  35.4042969  17.8238888  45.0426025
  34.6411705  16.9083900  43.4722748  34.0837326  16.4081688  44.0933800
  38.7035446  18.4113865  40.7515373  39.6402550  17.6477661  40.5980644
  38.4862785  19.1789284  39.8337440  16.0206070  12.1349239  56.1597672
  15.2585516  12.9037666  56.2678375  16.4170094  11.5547314  56.9902916
  16.5958843  11.9661484  54.9591980  16.1714211  12.7097445  53.7295151
  15.2522106  13.5254221  53.7913780  16.5380955  12.3593493  52.6182823
  17.6229172  11.0708675  54.7009506  18.7396736  10.6885958  55.5385170
  19.4536037  10.0899429  54.9596329  18.2716637   9.8919001  56.7161789
  17.4426060   9.2394896  56.4505577  18.8797493   9.9482508  57.9391060
  20.0366726  10.9237795  58.0675621  20.6286354  10.8149233  58.9742775
  20.4358311  11.8054094  57.1363373  21.3098869  12.4428911  57.2510948
  19.5859909  12.0069551  55.8751259  18.9012890  12.8638468  55.8855629
  20.5974674  12.0857124  54.8390694  20.7717876  11.1615801  54.5894241
  18.3590546   9.1484756  59.0560799  18.9355164   9.2765484  60.0793571
  17.5002327   8.3003130  58.8994179  75.7061386  50.9285545  89.1120529
  50.3085251  55.6310539   4.4613428   4.4638438  38.4909210   9.5053596
  82.8539963  67.7250214  57.1811790  41.7077255  43.9805565  51.9582520
  85.0690384  60.1589241  82.9396057   3.3156724  25.2203903  65.8870773
  24.8649483  60.9658852  61.5176506  79.9771881   3.1277921  71.8593445
  85.3282471   4.6125412   2.7919285  85.0909348   5.4199429   2.3358407
  84.4921188   4.2436028   3.0765345  52.1767273  38.7647896  57.5589981
  52.4811821  39.6720352  57.5379257  52.3079414  38.4473038  56.6655655
  32.4315567  67.5571976  74.4908295  33.1551971  68.1618881  74.3267746
  32.2022362  67.7015610  75.4088745  50.0776749   7.1215968  34.5554733
  49.3570213   7.7439308  34.4575386  50.5406227   7.4129124  35.3409958
  57.8840637  57.5873680  12.5964127  57.0443192  57.1335144  12.6676531
  57.6494484  58.5016670  12.4375162  38.7699585  29.6235256  68.1860199
  38.1546860  28.9420967  67.9152298  38.3522110  30.4427452  67.9203186
  14.5836210  30.3160038  66.7491531  15.5006523  30.5279293  66.5748749
  14.1750946  30.2904053  65.8838882  11.4220896   5.0063624   7.8995547
  11.9367533   4.9618840   7.0937171  11.6684637   4.2189603   8.3848677
  19.4212399  64.3706970   7.4308300  18.8390121  64.0759277   8.1310806
  19.7807064  65.1981812   7.7506490  26.8144722  28.2160416  65.2899170
  27.3914433  27.5356503  64.9429245  27.3481922  28.6746712  65.9387894
  15.4420929  27.4918365   2.4080546  15.3803787  27.4661312   1.4531920
  15.6741323  28.3985405   2.6087477  34.4814224  57.8201103  34.1122589
  33.9801178  57.8371429  33.2970085  34.1597633  58.5737648  34.6070061
  51.2471390  30.8913879  12.7849169  50.9131584  31.4840183  12.1115074
  50.9238701  30.0283737  12.5262012   8.8517637  42.2834358  38.3128777
   9.2757721  41.5353279  37.8924179   8.0885506  42.4654655  37.7646027
  46.2529945  17.4714298  31.0597839  46.0702553  16.8325310  30.3708363
  47.1963234  17.6230621  31.0017204   8.8412371  33.9691162  16.2541637
   9.4664707  33.4611092  15.7372055   7.9833460  33.6532707  15.9704409
  24.7410793  37.8739548  85.8701172  24.2353020  37.1742821  86.2834930
  24.7401257  37.6521759  84.9389648  28.2968731   3.5925329  80.7360916
  27.4492264   3.1537602  80.6639481  28.3402348   4.1580443  79.9650192
  67.8303375  52.7653084  17.9435940  68.1091919  53.6776619  18.0215893
  67.1065598  52.7887535  17.3176308  40.2853546  71.4933090  18.7607250
  41.2019119  71.2670288  18.6027527  40.2992630  71.9928970  19.5770931
  40.0651474  68.7643967  25.4682770  40.0699501  68.3181534  26.3150826
  40.2462845  69.6803284  25.6791840  24.2994022  29.0038910  78.2854538
  24.1084251  29.4403687  77.4552460  24.1331654  28.0772133  78.1126480
  26.4898720   3.1360571  61.8366928  26.1046982   3.8062027  61.2720871
  26.5145454   2.3492839  61.2920723  39.6721840  44.0905609  20.2421627
  39.6446800  44.1852074  21.1942749  38.8944168  44.5548592  19.9327488
   0.5212526  56.7735748  65.9396820  -0.0692823  57.3334541  65.4356613
   0.0756338  55.9272308  65.9765167  60.4908257   0.9623851  88.8825455
  59.8855324   1.4211549  89.4651108  59.9883080   0.8177168  88.0808105
  29.6939144  59.6793404  37.8370171  29.1846390  58.8717957  37.9058800
  29.2549191  60.2905388  38.4285851  80.5270386  69.3079910  22.8966484
  81.2125931  69.4642715  22.2471676  80.5032196  68.3562088  22.9954739
   5.2998772  27.4886799   3.4295676   6.1186743  27.2797680   3.8791876
   4.6229696  27.3651371   4.0949736  41.0525818   5.0241814  16.4137363
  41.4936638   5.7672915  16.0020771  41.3837395   5.0165997  17.3117962
  48.8045425  13.4017248  78.8498993  48.0551529  12.8079586  78.8041992
  49.5681572  12.8303776  78.7681198  19.8656025  46.4648285  84.9020157
  19.0504456  46.0040169  85.1005096  20.5547314  45.8748360  85.2073669
  12.1146698   1.0068878  28.5934811  11.5801935   0.5705438  29.2569351
  13.0155029   0.8842243  28.8929596  27.9431839  59.1641350  31.1123486
  27.8699875  60.0534630  31.4587212  28.8801880  59.0433922  30.9584904
  14.1481724  42.6152229  45.6897202  14.5850086  43.4200287  45.9684563
  14.0689459  42.7023582  44.7397919  53.2317657  40.9407730  10.0622587
  54.1632462  40.8272209  10.2511606  52.7880363  40.6374054  10.8542862
   7.8621120  65.2998276  32.1380081   7.1562667  64.8106689  31.7152328
   8.6275635  65.1414948  31.5855160  49.9166069   3.7923734  62.8862915
  49.2273216   3.4265676  63.4406433  50.6068039   4.0467610  63.4987831
  59.5566940  30.3907051  85.9090805  59.7117348  29.6851521  86.5370865
  60.3657112  30.4401913  85.3998947  54.3600082  66.5779877  23.7803345
  54.5037041  67.3655243  24.3050880  53.4662361  66.6698914  23.4502583
  22.1843605   6.8097224  65.9700089  23.1141586   7.0069752  66.0831375
  22.0544720   6.8036199  65.0216827   7.9744005  16.3131962  57.3118057
   7.1112585  16.2221622  56.9081573   8.1923704  17.2390919  57.2048645
  54.9103432  19.5832825  63.4152756  54.5811882  19.7347164  64.3012543
  55.4597816  20.3449841  63.2304459  68.6285629   5.9690032  67.2440796
  68.2289581   6.2562346  66.4230804  69.5538254   5.8482060  67.0307159
   7.4540234  65.5725861  63.3393822   7.2098217  64.6562500  63.2093201
   8.3717518  65.5398788  63.6094513  73.5113068   2.1996918  69.4623718
  73.9409027   1.4216149  69.1070175  72.6444702   1.8938179  69.7293243
  11.1377258  22.1360378  20.1787071  11.1109648  22.1200981  21.1354008
  12.0703135  22.1699123  19.9657192  77.7803879  66.9163589  18.1381836
  78.5352173  67.3589325  17.7501259  78.1433105  66.4262619  18.8759651
  46.0063934  48.9627571  82.5803223  46.0553093  48.0991707  82.9902725
  46.0174904  49.5772285  83.3141708  41.2129326   7.4201922  22.6041508
  41.3168373   8.3151464  22.9274025  40.9302292   7.5249810  21.6956730
  10.3701143  45.9573402  47.8269997   9.5339670  45.9651833  47.3611374
  10.1291723  45.8818626  48.7502975  17.8064518  48.3857689  70.0861511
  18.7171822  48.5581284  70.3250961  17.8540344  48.0396614  69.1949844
  37.7425385  64.8054123  75.6086349  37.0309563  65.4147797  75.4122696
  38.4458694  65.0577087  75.0103836  35.6790009  19.1857433  76.7766037
  36.3884468  18.5482025  76.8569794  36.0560837  20.0052948  77.0965652
  50.6260681  59.2946968  13.5986614  50.0815582  58.5375900  13.3829527
  50.4498100  59.4604073  14.5247850  36.7940941  36.8115845  33.8384666
  36.5707054  37.0264740  34.7440910  36.0342522  37.0958138  33.3304443
  81.0435104  54.2954216  28.7460175  80.8198090  55.1907539  29.0001202
  80.3301392  53.7617722  29.0960846  65.3156967   8.9708147  70.2067032
  65.8522339   8.2734671  69.8297958  65.8761215   9.3716440  70.8711472
  28.0954094  60.0147591  52.3556137  28.4986477  60.3400688  51.5507507
  28.7870903  59.5094185  52.7827415  60.9109764  58.1004982  28.0941639
  61.7007790  58.1866112  28.6280479  60.7652283  57.1564636  28.0326271
  66.7406769  61.6270409  11.8725080  67.6063614  61.2613258  11.6906481
  66.2521744  60.9029236  12.2639885  39.1562424  42.4174423   8.2503662
  39.6622162  41.6166954   8.3883133  38.3990364  42.3248978   8.8285618
  49.5933990  18.5778046  27.4379864  50.1145859  17.7750130  27.4490776
  50.0415878  19.1627941  28.0488453   1.0751770  30.1735477  57.4170952
   0.6942648  29.9265881  58.2598000   0.9140093  31.1145439  57.3479576
  74.9791870  22.5118084  85.1391449  74.2309570  23.0483322  85.4009171
  75.7193604  22.8821106  85.6200256   4.3471742  45.9727707  70.1194839
   5.2193551  45.5800896  70.1560211   4.4610763  46.8447647  70.4974747
  17.6124802  29.4463787  21.5894890  17.1700115  30.2263603  21.2547035
  18.1546516  29.7689934  22.3093510  35.4914513  71.1117096  27.3660679
  34.6086960  71.0707397  27.7338886  35.3639145  70.9989395  26.4241295
  70.2574387  42.4640045  74.7533340  70.3610535  42.4776459  73.8018570
  70.6996765  41.6617661  75.0309448  77.7135849  16.5687923  60.7289772
  77.5854874  16.6401596  61.6748772  77.5874481  17.4596405  60.4023094
   4.1574268  32.5355034  31.6756172   4.2306685  31.7977333  32.2810631
   3.8447495  33.2599297  32.2175331   6.0250955  21.0024929  70.2168655
   6.7908478  20.7931976  70.7517090   5.4070745  20.2937660  70.3957214
  61.7443619  46.4222412  65.9612350  61.9477386  46.5298347  66.8903732
  61.7510529  45.4751472  65.8227005  79.9813995  66.8533859  81.5206223
  79.2557526  66.7248688  82.1314774  79.7860718  67.6846771  81.0881577
  12.3991737  33.6193466  68.8356628  13.0848227  34.0562668  69.3408508
  12.2154064  32.8173790  69.3248520  48.2737083  49.0731316  49.6886215
  48.4313545  48.3788338  49.0488319  47.3341217  49.0270157  49.8654900
  75.4159470  29.5675430  85.8997574  76.2661819  29.1319313  85.9594498
  75.5760269  30.3300991  85.3437729  86.6533051  57.4887276  49.1337624
  86.0579453  56.8297005  48.7767410  87.5239944  57.1035156  49.0350494
  83.5980530  19.6581879  68.0096741  83.5241165  19.0724716  68.7631378
  82.7429810  20.0846615  67.9530258  73.2479324  10.5782013  33.9567757
  73.8437958   9.9963446  34.4286118  72.7681961  11.0390491  34.6450348
  45.8588409   4.3100123  57.8217316  46.2444267   4.2642574  58.6966400
  46.5663490   4.0449324  57.2340240  72.3173447  66.7779236  47.0845070
  72.7227936  67.4854050  46.5831985  72.4847870  65.9907303  46.5663109
  64.2612000  24.8749599  63.3083611  64.8812256  24.2988033  63.7554054
  63.8792114  24.3287487  62.6213608  35.0788879  37.3678246  27.6860523
  34.8339157  37.7606735  26.8482609  34.5320244  37.8172989  28.3303680
  56.9915085  35.4859352  27.7153187  56.8754997  35.7926407  28.6145992
  56.1470909  35.6500359  27.2954807  19.4656525  48.2540131  19.0749321
  19.3525524  49.0998955  19.5084324  18.5757713  47.9167404  18.9720097
  25.2043552   5.3217287  14.4754562  25.2526894   4.3714094  14.3715878
  25.8140373   5.6653576  13.8224316  40.8836555  33.9580193  24.4644394
  41.3207779  33.4490051  23.7817516  41.4932251  33.9423065  25.2022800
  73.1905518  27.4485168   9.9669685  73.1193237  26.7400475   9.3272581
  73.4182053  27.0093079  10.7864189  72.9713211   5.6358328  74.0470734
  73.0667191   5.9899364  73.1629105  73.7414246   5.9552026  74.5173645
  42.9442940  67.9887009  14.1178923  43.0619049  67.0831223  13.8309565
  43.6909103  68.1566467  14.6928616  -0.0851762  40.9826431  41.7839584
  -0.2255979  41.4149055  40.9415436   0.6203732  40.3575058  41.6177254
  50.5380783  32.7474785  14.9698210  51.1765633  32.6550293  14.2626991
  50.3885193  33.6906242  15.0356913   0.3454311  16.6642990  50.3592834
   0.3126110  17.5918427  50.5934181   0.8413812  16.2556095  51.0686760
  34.9637527  15.1911945  81.8595047  35.5866814  14.4655609  81.8188705
  35.4019737  15.8533964  82.3940048  42.2909660  27.2431583  79.7256317
  41.5172272  27.8015842  79.6500168  42.1298561  26.5263042  79.1121216
  83.4035873  49.3051987  42.8303986  82.8764648  48.9578362  43.5499191
  84.1083069  48.6669197  42.7199020  10.6603909  27.9951077  87.6259232
  10.0311756  27.5673332  87.0451279  10.1588697  28.1958752  88.4161148
  82.7120438  20.4587860  51.3791046  82.7751999  21.3179264  50.9618263
  82.6420441  19.8428440  50.6497574  54.4467888  56.2042351  81.8293381
  54.0385590  55.9449348  82.6553802  54.0754776  55.6063156  81.1806030
  44.7266617  49.2557831  26.8554935  44.1856232  50.0069733  27.0988522
  45.6143265  49.6090546  26.7964363  86.1343765  47.4726143  46.7891159
  85.6415482  46.6870956  46.5518036  86.1678391  47.4545250  47.7455597
  51.8072472  10.9762087  11.7498693  52.0902023  11.7458363  11.2560663
  51.0883484  11.2933664  12.2965183  74.6584167  66.9369583  41.6763077
  74.0987244  67.0783844  40.9127846  75.3324966  66.3302689  41.3700752
  28.2074490  55.2014580  22.4685535  28.5727997  54.4776840  22.9773788
  27.7638893  54.7777290  21.7337456  27.1775665  49.8752670  60.1877289
  27.8699932  49.7145767  59.5466728  26.6053257  49.1110535  60.1188240
   4.5417328  54.2960739  70.0910568   3.7261214  53.8765717  69.8171463
   4.4577188  55.2013741  69.7917252  76.5134201   2.7479768   3.5287116
  76.0165939   2.1770482   2.9426751  77.4176483   2.6765537   3.2229235
  38.2800064  32.5903778  67.6431122  39.0323486  33.1077194  67.3557587
  37.8456268  33.1408348  68.2946854  19.4143105  57.2927437  32.3190727
  19.7550926  57.6918221  31.5185509  18.8411598  57.9610825  32.6946487
   8.9385614  43.7807961  12.1105375   9.2364674  44.6511002  11.8458519
   9.1435022  43.7311821  13.0442238   4.5678010   6.0957341   3.1244977
   3.8361380   6.6625929   2.8804235   5.3479319   6.6187768   2.9399607
  78.9384079  60.1552734  39.3534622  78.0769272  59.8752174  39.6627464
  78.7958908  60.4035797  38.4400826  85.8685455  28.8772697  23.3781738
  85.1798859  28.2386913  23.5630875  86.6254272  28.3475208  23.1277180
   3.1537664  41.2023506  56.8407059   3.0998511  41.5620003  55.9552803
   3.4957218  41.9220314  57.3711357  34.7024117   0.2056195  24.9548168
  33.9202003   0.7517875  25.0328045  34.6873856  -0.1064709  24.0500488
   1.5742079  64.6962814  39.7152367   1.2002665  64.7930603  38.8394318
   1.3653808  65.5193024  40.1571198  16.5917778  67.0812759  31.2482452
  17.0579453  67.6138611  30.6038265  17.2829609  66.7058258  31.7937145
  57.1835365  41.8516083   5.9645476  57.6093254  42.0119591   6.8067017
  57.5316429  41.0075798   5.6770234   3.0584445  55.9098625  -0.0785452
   2.8514163  56.3159676   0.7631488   3.9971230  56.0590019  -0.1920002
  13.4316902  28.2430420  72.7507706  13.7211294  27.6503143  73.4444046
  12.9478960  28.9300709  73.2092133  43.5339432  25.4699917  38.7420883
  43.5054665  24.5511303  38.4754181  43.4572525  25.9595470  37.9231339
  65.8282089  59.1856880  62.5235863  66.6417313  58.6889076  62.4363289
  65.1650162  58.5256691  62.7255516  52.2169647  33.7962112  66.9583206
  52.1356354  33.2369156  66.1857910  52.6095924  33.2305794  67.6232529
  37.5283508  31.5795918  65.2815781  37.6550980  31.8598671  66.1880035
  36.6140518  31.2988415  65.2433090  43.2028770  51.8894691  73.1328812
  43.6241035  51.9871597  73.9868393  43.9259109  51.9062996  72.5058441
  53.8409615   8.1421719  14.4064760  53.9860115   8.4813232  13.5232048
  53.4633980   8.8789473  14.8869314  35.7528687  67.0747070   3.8256848
  35.0843277  66.7649078   4.4366736  36.3284302  66.3206329   3.6978817
  81.9613571  45.2683449  61.0813637  82.7148285  45.7244568  60.7065697
  81.7509842  44.5878181  60.4419441  63.5491753  11.6712523  39.9154892
  64.3637009  11.7003908  39.4135628  63.7834320  12.0262318  40.7730103
  18.3777790  70.4483261  13.6189098  18.5091190  71.0079727  12.8535480
  18.5164948  71.0291748  14.3669815  72.6393585  15.0102940  22.1514149
  73.3460312  14.3780861  22.2824211  71.8507538  14.5514107  22.4408226
  78.7696304  61.1523895  18.3087063  79.0473709  61.4923363  17.4580994
  79.2976913  60.3641815  18.4356461  39.9422607  15.5063801  82.6577301
  39.9453773  15.9421663  83.5099716  39.0723419  15.1122427  82.5934448
  69.9121933  41.5911865   8.3010340  69.8577194  41.2213211   7.4198627
  70.7023849  42.1311798   8.2857008  50.1553497  31.4840755   3.1474533
  49.5964432  31.7401962   2.4137943  49.7080345  31.8278599   3.9207273
   2.5409234  59.2691116  45.9175911   2.2451851  59.7323952  45.1339226
   2.4263327  59.9013062  46.6271172  39.3106804  42.3856888  15.6559458
  38.8221817  42.3061485  16.4752579  39.9667282  41.6900482  15.6997452
  29.3534927   2.8716054  65.9869995  29.3035927   3.3342061  66.8235016
  29.9041233   2.1096454  66.1671448  28.1397495  17.3793602  87.8991394
  27.8300171  17.4274998  88.8035660  28.2008419  16.4417381  87.7164841
  72.1987534  30.8316116  81.4068222  72.6633835  31.2889252  82.1076889
  71.3070831  31.1775799  81.4450989  57.4798622   5.9643087  72.9063797
  57.1263390   5.8944750  72.0195999  58.3626289   5.5999370  72.8416824
  16.7987633  24.4223919  10.5175180  16.5429878  25.0921841  11.1517038
  17.2757282  23.7729874  11.0342464  75.4653473  69.9866409  33.0828896
  76.1121140  69.9707718  32.3774261  75.9424362  70.3318939  33.8374901
  85.0736237  33.9386520  28.3606110  84.7833862  33.0965385  28.0101376
  85.8595963  33.7298889  28.8654842  68.1695786  70.6912003  12.3841600
  68.5652084  70.7965927  13.2493763  68.4952011  69.8465195  12.0731783
  29.1616611  28.6435089  63.0639076  28.7350712  27.8068962  63.2491951
  29.9954090  28.4029369  62.6599007   8.0907497  68.9534988  86.9676590
   7.7823129  69.7579651  86.5506134   7.3128433  68.3983841  87.0219116
  23.5341225  68.4039001  22.9390144  22.6950283  68.7781143  22.6704693
  24.0561066  68.3860550  22.1368637  71.3565903  58.8721619  75.8567276
  72.2823029  58.9905167  75.6439209  71.3586884  58.3046532  76.6275406
  53.5420723  56.7232208  10.0991764  54.2394333  56.0801506  10.2271767
  53.0994225  56.7683983  10.9466724  47.0644341   9.5402975  19.0016270
  47.8581848  10.0751486  19.0128059  46.6829948   9.6595526  19.8714046
  64.0499878   7.8119321  23.6588497  64.8318558   7.3706989  23.3268585
  64.2840729   8.7400293  23.6672249  50.6706161  65.6405029  77.1828995
  50.6353798  65.2273178  78.0456161  51.2390976  66.4009323  77.3045731
  40.7985535   1.4996766  73.2854233  40.1397934   1.0607949  72.7472305
  40.6243782   2.4329693  73.1635208  10.2830906  59.8220825  10.2038574
   9.9887161  60.6457672  10.5925932  11.1106968  59.6311913  10.6452866
  22.6873283  17.3790359  17.7581673  23.5007629  17.7484512  18.1018066
  22.9479580  16.9353409  16.9510479   9.9845743  19.1084099   6.0975790
  10.7796583  19.4026833   5.6531959   9.3864021  18.8740044   5.3880191
  50.6541214  23.5616741  88.6538391  49.9733887  24.2269440  88.5525894
  50.2506714  22.7553253  88.3324966  40.9776421  43.2892838  30.9259033
  40.8762131  42.4668083  31.4049435  40.8650436  43.0466194  30.0068455
  20.0558968  34.1115341  79.6621628  20.1389847  33.2090569  79.9701614
  20.6939945  34.1820107  78.9521637  61.1711121   6.3508620  27.8056793
  61.3442688   6.7006936  26.9316845  61.4311523   5.4312611  27.7514267
  84.6722183  11.3373251  88.5835876  84.8323517  11.1999388  87.6499329
  85.0406570  12.2019243  88.7651062   7.1762562  71.2387085  86.1292191
   6.3216639  71.4501877  85.7534790   7.7839251  71.8364563  85.6937180
  66.5289688  34.7693901  14.7246351  66.3180313  35.5273323  14.1794186
  66.6667328  35.1341057  15.5988417  52.0088768   9.8786402  80.0360947
  51.4575310   9.5907860  80.7636795  52.4243927   9.0768795  79.7186661
  60.6188011  59.8447838  87.5617065  60.9092102  60.7385941  87.7433624
  61.3736115  59.2984848  87.7809067   5.4441051  22.5398960   9.4601288
   6.3020802  22.8855953   9.7063046   5.5855269  21.5987740   9.3575563
  82.0806808  69.1449814  64.1201248  82.6280518  68.7245407  64.7833328
  82.7033234  69.5663223  63.5276527  71.8337479  36.3600349   3.6752551
  72.3241653  35.8051529   4.2817421  71.6892319  35.8065987   2.9077563
  51.9502106  47.6180611  62.7462273  52.6905212  47.8366623  63.3122559
  51.8754158  48.3639183  62.1509666   7.7382197  26.5548897  17.7658653
   7.9696112  26.2018147  16.9067783   7.5254307  27.4729366  17.5981102
  39.4926338  30.9105816  44.9477386  38.5545235  30.9993076  45.1159782
  39.8597488  31.7628021  45.1826324   7.1468282  59.0962486  11.7217007
   7.3430347  59.4067192  12.6056356   7.6068683  58.2595749  11.6540947
   2.6557145  27.5206070  59.9738007   3.5899813  27.3125648  59.9835739
   2.6013634  28.3567848  59.5111084  83.9761810  23.7047501  56.2586060
  84.4434128  23.1128998  55.6690025  83.2370911  23.1883850  56.5800819
  69.6457291   0.6129697  10.2537937  70.1476288  -0.1905568  10.3904591
  68.8264084   0.4669547  10.7266798  35.5190735  34.4404793  78.9655075
  35.8480682  35.1789055  78.4529419  34.5797844  34.6054764  79.0475998
  69.4139252  31.0282707  21.6073475  69.8123169  30.3792686  21.0274258
  69.6040726  31.8694191  21.1919613  53.3528824  61.0623093  52.3552818
  53.1899872  61.4402428  51.4910698  52.5477829  61.2292976  52.8453445
  20.3436794  19.6201115  70.9985962  20.5914974  19.6368637  70.0741806
  19.4023418  19.4467258  70.9911041  85.1383133  29.0729446  71.5375214
  84.8392410  29.9702072  71.3901825  84.5984650  28.5414238  70.9524689
  78.2160873  31.5967445  56.4298859  79.0839615  31.1931515  56.4181900
  78.1870728  32.1255035  55.6325111  40.8704834  20.1781292  81.2518921
  41.3845596  19.5577488  80.7350922  41.5093498  20.5960560  81.8293152
  37.9867210  70.1149597  35.9265289  38.0826187  70.7931442  35.2578697
  38.0316277  70.5891647  36.7567978  75.8112335  70.6121826  52.4248772
  75.2247620  70.2398834  53.0834122  75.3217621  71.3477707  52.0566940
  58.7883377  57.9838982  74.4490128  58.3027611  58.0871887  75.2674179
  59.6945724  57.8449860  74.7240982  18.4340782  49.6820869  77.8220291
  19.3610878  49.9205322  77.8274231  18.3415260  49.0974312  77.0698013
  73.8892899  44.1611252  66.9833984  73.8180771  45.0096664  66.5462036
  73.6431732  44.3380890  67.8913345  38.4624672  47.9815826  46.4405861
  38.0947151  47.6457672  47.2580299  37.9509354  48.7686729  46.2533417
  62.5807266  47.0739670  51.7803078  63.3428993  47.4876633  52.1855011
  62.9382210  46.5908508  51.0353050  38.6934471   0.4524359  71.6154709
  39.0075302   0.5401013  70.7155304  38.0133057   1.1208925  71.6979675
  16.7656136  42.8071747  36.9350319  16.6882553  42.5441475  36.0179367
  17.6274967  43.2193642  36.9941025  36.2636490  17.7839298  64.0038681
  37.0499115  17.5710602  64.5065765  36.5818787  17.9341717  63.1137085
  15.2404032   8.6090822   4.8387451  16.0300674   8.3992004   5.3373547
  15.0367584   9.5122757   5.0816488  31.8649979  36.6127052  15.8756046
  32.6053352  36.3423195  15.3324461  31.7467747  35.8925896  16.4950275
  29.8571014  61.9112473  27.2310257  29.5999546  61.5366135  26.3885536
  30.8020916  62.0437775  27.1557827  51.4654617  60.3506241  39.9373055
  50.8143692  60.0459099  39.3052788  51.8159256  59.5489388  40.3255196
  73.5992966  57.1376572  81.7522049  74.0428162  57.5035095  82.5174942
  74.2422104  57.2077370  81.0465317  80.4562073  64.8688889  16.2635937
  80.5992813  65.7499313  16.6093273  79.5088043  64.8110886  16.1398315
  85.3306656  59.9151115  29.1834259  85.3250961  59.0742569  29.6407661
  86.2432098  60.2017059  29.2201710  15.6369476  61.2877045  57.4093971
  15.4521008  61.4410439  58.3359795  15.8602982  62.1518364  57.0635262
  30.4435806  51.1476135  57.2614326  30.0146065  50.4844246  57.8021660
  31.1587887  51.4752884  57.8067207  13.4701786  47.9092979  -0.2779911
  13.1052303  48.7048454   0.1094931  13.3195972  47.2312431   0.3806441
  33.9762878  53.0978012  24.0987740  34.6423874  52.4190750  24.2077484
  33.4535141  53.0510559  24.8992443  67.9407883  18.1073742   7.8963428
  68.1555252  18.3075638   8.8074112  67.0325546  17.8065052   7.9248786
  74.4908218  63.2897758  17.6265316  73.7719421  63.0084076  17.0606022
  74.7405548  64.1492310  17.2871056   9.5783091  19.7132454  60.3603897
   8.8713045  19.2516689  60.8113060   9.1821337  20.0200272  59.5448151
  25.4509277  38.3638916   8.8473530  24.7707634  38.4649773   9.5132265
  26.0063515  39.1362534   8.9531460  69.1092453  30.3849506  83.5532761
  69.3236237  29.4635353  83.4074249  69.1485291  30.7807159  82.6826096
  34.6741943  32.0936775  82.4608154  33.9271698  31.4981270  82.5200195
  35.2740631  31.7941036  83.1439285  55.4635963  29.8597279  19.1688900
  55.8664780  30.7269936  19.2109795  54.5859718  30.0199070  18.8219738
   4.9805045  26.3847485  50.3029709   4.1693397  26.5168819  50.7936668
   5.1048536  25.4356785  50.2968826  59.7803001  10.4968853  74.8103714
  60.4062653   9.9549379  74.3300705  60.2707214  11.2877769  75.0344467
  62.5021896  26.0439491  24.1037025  61.8343315  25.3736610  23.9590969
  62.4614182  26.2239799  25.0429344   3.6891489  24.5786438   9.3625679
   4.1122417  25.4010983   9.1160059   4.4116292  23.9594364   9.4666691
  57.8159370  35.7301559  17.6785507  57.0249863  35.2456398  17.9149208
  57.6217461  36.1002235  16.8174019  48.4990463  13.3425102  63.0225487
  49.2460327  13.9350071  62.9377480  48.8712578  12.4689875  62.9015160
  51.8383408  51.2845573  37.4288445  51.1013145  50.6739006  37.4400482
  51.6217003  51.9337387  38.0980682  16.6439667  14.0575495   7.6012383
  16.4751968  14.9216642   7.2256665  16.5701561  14.1886768   8.5465364
  46.4146347  30.9685364  76.6756134  46.0775871  31.5335941  75.9803848
  47.2546959  31.3594608  76.9158401  67.0920258  27.0784302  68.4595490
  67.4952240  26.8609161  67.6191025  67.0375366  28.0340786  68.4588699
  37.8512039  26.6057644  65.2551193  37.6234665  27.0028648  66.0957565
  38.1608162  25.7285500  65.4806442  63.7817383  19.7626514  44.3381958
  62.9003868  20.0943336  44.5097618  64.0276260  20.1575375  43.5016327
  18.8792801  66.7243881  58.6448135  18.9547482  67.1937714  57.8140221
  18.5017796  67.3644943  59.2481270  45.8221397  37.3281708  42.8232841
  45.5908051  37.2651711  43.7499695  46.1850548  38.2085838  42.7263374
  34.3822746  50.7294617  55.5378571  35.2606430  50.9404678  55.8543701
  34.2863121  49.7918472  55.7049065  61.1877518  58.5665970  45.6927719
  61.3285141  59.0951500  46.4782944  61.0024071  57.6882858  46.0251122
  10.1493378  49.6926384  19.2801399   9.5893974  49.1915054  19.8730679
  10.9020119  49.1226578  19.1225433  85.6550217  54.2796593   2.7607358
  84.7098007  54.3049355   2.9095902  85.9220123  53.4116898   3.0633495
  75.1767273  13.0071230  72.4949417  75.2770462  12.0555601  72.5212936
  75.4079361  13.2968693  73.3774490  17.5173092  46.1562233  79.6736832
  17.4272442  45.8067017  78.7871399  18.4027252  45.9085274  79.9399872
  81.0449066  29.1371021  58.2525368  81.1444778  29.1034431  57.3011246
  80.6141434  28.3124695  58.4776001  49.2346611  12.3542023  22.3744411
  49.8448296  12.3654423  23.1118679  48.3961563  12.6179943  22.7533302
  31.4072704  60.7527542  30.6562576  31.6483192  60.2530670  31.4362831
  32.2390671  60.9226341  30.2141209  33.9581871  69.8498154  30.7380733
  33.8654709  69.6263733  29.8119488  33.0691299  70.0597229  31.0239830
  72.8507309   8.0021763  61.0126877  71.9861908   7.7302217  61.3206520
  73.3358917   8.2077875  61.8117943  30.9159679  69.0551453  28.3040619
  30.7102737  68.1248932  28.3965950  31.8144970  69.0701218  27.9744339
  48.7361031  59.7655373  52.6483002  48.5614090  59.8683205  51.7128067
  49.3560143  60.4651337  52.8544731  75.6233063  12.9186859  42.5708351
  75.1983185  12.9925852  41.7163429  76.5300980  12.6886559  42.3682442
  54.4807091  49.1035347  83.5822830  53.6380272  48.9975739  83.1408157
  54.2738113  49.5913582  84.3794327  18.6933079  50.9624367  20.0296402
  18.6810455  50.8721733  20.9824944  17.7752838  51.0872498  19.7890453
  45.3913498  62.4758644  18.3918972  45.3405380  61.6335869  18.8438015
  46.3030815  62.7484589  18.4951572  73.7189255   8.2856684  63.8418808
  74.1956787   9.0730953  63.5793953  74.3936844   7.7010517  64.1870804
  50.7259445  22.6752472   7.9896369  49.9473991  22.1186085   7.9738359
  51.3636856  22.1805267   8.5041962  73.6184387  36.5821648  29.9191208
  74.3449173  37.0195351  30.3631592  74.0388031  35.9369774  29.3505669
  49.8809700  69.6740265   0.6349172  49.1677628  69.1220016   0.9556055
  49.6306572  70.5616455   0.8912520  51.9075508  15.8073177  54.0148964
  52.5216179  15.7115669  53.2868996  51.5845337  14.9204254  54.1740036
  26.8636436  33.5834122  15.4249449  27.4528942  33.0153427  14.9286442
  26.6634083  33.0863495  16.2180843  27.9953480  15.4098616  80.7119522
  27.5413074  16.2390213  80.8621902  28.9248123  15.6346903  80.7541122
  73.9453430   8.6698523  67.5736923  73.1548386   8.5521774  68.1004562
  73.7848511   9.4720955  67.0768280  39.1260109   5.9067559  18.6194000
  39.3845673   5.5075431  19.4500675  39.5876541   5.3961115  17.9542980
  48.1142731  42.9724503  87.4384918  47.1702271  43.0754242  87.3184738
  48.2863007  42.0586090  87.2114868  44.6222992  30.2427731  66.6600571
  45.1913834  29.9752617  67.3817368  43.7772980  30.4186554  67.0739059
  34.8313637  29.0571022  66.6091080  34.1396523  29.1696396  67.2611008
  34.5590897  29.6061878  65.8738480  35.9868393  63.5884247  69.1909256
  36.3001404  63.1012459  68.4288635  36.2963943  64.4827347  69.0473099
  45.5458260   5.6248651  13.6558418  45.6861420   5.0582156  12.8972559
  46.1691284   6.3416762  13.5379114  35.2199249  42.9855118  42.5936050
  34.4213104  42.7702446  42.1118279  35.5769501  42.1372414  42.8566704
  80.1787567  26.1812153  51.3969193  80.3232498  25.3489113  51.8470573
  79.2648087  26.1453781  51.1147118  14.3149157  11.3354092  10.6758385
  14.8321934  12.1267204  10.5258961  14.3184853  11.2234850  11.6264658
  13.7277193  67.2196274  19.0847836  14.2493668  67.1067810  18.2901878
  13.4876070  68.1462250  19.0840836  27.2338657  22.7126141  66.6756516
  26.9549694  23.4855709  66.1847458  28.1616249  22.8649101  66.8553848
  65.8880997  21.2383022  67.6424484  65.8671341  20.9813061  66.7206345
  64.9922409  21.5155907  67.8342285  36.8951797  70.9751740  87.9448929
  36.1569328  70.6877136  88.4821014  36.7210159  70.6037674  87.0800476
   4.9157248  18.0543766  55.3784790   5.7184992  17.9553661  54.8666382
   5.2195115  18.2437668  56.2662163   9.7352009  42.5369987  45.5187721
  10.1171474  42.9455223  46.2955971   8.8396006  42.3203011  45.7779503
  52.9774590   1.8810253  34.4252090  53.6175423   2.3998291  33.9380112
  52.1479607   2.3407526  34.2955284  82.8991699  64.7310486  69.2197113
  82.6998825  65.4641647  68.6374359  83.4544296  64.1533661  68.6960678
  51.5531998  66.5016479  33.7289047  51.0900459  66.5704575  34.5637589
  51.5980110  65.5611343  33.5566711   8.8167305   2.6628819  75.3959274
   8.9308634   1.7649029  75.0847397   9.6926451   3.0459650  75.3484650
  43.0871315  41.3695602   6.9256711  43.9293365  41.4947281   7.3630009
  42.5389137  42.0826378   7.2530985  33.4360428  17.1085339  84.8182755
  32.8918419  17.3634186  85.5633392  34.3342705  17.2415447  85.1211472
  68.6522217  68.6337662  81.5614243  68.9399338  67.8759079  81.0524139
  68.8725967  68.4122696  82.4661865   2.6900740  69.6899643  57.8224258
   2.0260761  69.7942123  57.1409035   2.4733977  70.3585968  58.4722061
  51.4655418  34.7450523   5.3313656  50.7543030  35.3134575   5.6268063
  51.2417793  34.5326958   4.4252391   1.0557569  23.2791328  82.9172745
   0.4081356  22.7095852  82.5020218   0.5384628  23.8741207  83.4600754
  48.5467415   3.0446594  83.7720490  49.4628258   3.0877078  84.0462112
  48.0674553   3.4969180  84.4662933  51.6057281  35.3449364  82.6935806
  50.8047752  35.8661957  82.7482910  51.5437584  34.7329178  83.4269409
  20.0154152  37.5668564  71.5469589  20.6593208  37.2134361  70.9331894
  19.4528065  36.8220749  71.7591171  39.5589523  55.0435219  27.0114079
  38.8359146  55.3725281  27.5454540  39.4037819  54.1008034  26.9528084
  60.7663078  46.2910652  21.4491711  60.8647537  45.4373436  21.8707161
  61.5479469  46.3805275  20.9039516  59.4176788   2.8754766   2.1702335
  59.8704643   3.5797820   2.6341000  58.5604553   3.2429116   1.9548492
  62.8048172  70.4677048  15.7020836  61.9950523  70.7783127  15.2970657
  62.5754738  69.6157379  16.0732937  30.7415447  59.4530792  74.7072678
  30.1120434  58.7846222  74.9776917  31.5885067  59.0076981  74.7301407
  80.7608948  23.1862926  11.7824125  79.9473572  23.6441727  11.9939108
  80.6236267  22.2943268  12.1014481   9.9276810   4.7728376  17.2828026
   9.4714384   4.0694799  16.8208904  10.1251392   4.4050231  18.1441708
  56.1843185  41.6714706  41.3174286  55.9159126  42.3557663  41.9305611
  55.5410004  40.9735146  41.4408607  67.2488556  32.8255997  63.0899429
  67.7280350  33.1941643  63.8320885  66.3284531  32.8842659  63.3461647
  64.6381454  19.0287724  79.8663788  64.4897232  19.3495388  78.9768219
  64.1854553  18.1858959  79.8956985   1.7396052   1.5284299  55.1871605
   0.9370174   1.8519098  54.7779579   1.9538152   0.7334945  54.6988716
  39.5374336  33.2333145   2.0710485  39.8431320  32.4103775   1.6895320
  39.3982773  33.0312691   2.9962757   6.2629952  48.3524971  14.7586241
   6.7081575  48.3115578  13.9122276   6.2617812  47.4482536  15.0725899
  32.8000526  50.6174965  25.7251778  32.4978065  51.0119553  26.5432720
  32.0097771  50.2482948  25.3309879  17.9930401  55.1320839  87.5862808
  17.1829910  54.9256668  88.0525894  17.7142372  55.6808205  86.8532181
  46.0113907  65.7890854  51.4228172  45.3824883  65.5289688  50.7497253
  46.3304443  66.6443481  51.1348000  66.4975281  69.7425461  19.7477512
  66.9436493  70.0703659  18.9668903  67.2053223  69.4630966  20.3284130
  21.3056812  40.7371216  85.5212021  21.9465084  41.2740898  85.0551224
  21.2986984  39.9061546  85.0461502  31.7178478  48.9916344  68.4295349
  32.4085159  48.5668144  68.9382019  30.9516773  48.4308128  68.5507660
  15.1410751   4.9573512  57.8838959  15.1051664   5.8254008  58.2856827
  16.0664978   4.8274512  57.6766472  35.8902931  37.2819481  84.2764740
  34.9808464  37.1000900  84.0396881  36.1903992  37.9043159  83.6140289
  46.0373497   4.2847586  69.5709229  46.1319695   4.7518659  70.4010391
  46.3608131   4.8992257  68.9121094  73.5429230  48.7450790  74.4391098
  72.6978455  49.0934296  74.1550064  73.3483963  47.8554001  74.7338333
  83.5965271   9.6244621  51.3153229  83.0950775  10.1402798  50.6838875
  82.9337387   9.2273111  51.8803139  42.2157822  43.8045883  60.1723633
  41.9256783  44.1482735  61.0173187  42.0185127  44.5036507  59.5489616
  64.4049606  46.2040710  78.4437332  63.7113800  46.8456078  78.5973816
  65.0151215  46.6475143  77.8544159   6.5203528  21.0044994  79.7779083
   6.1280107  21.8541813  79.9787521   5.7911358  20.4737396  79.4573364
  53.1945992  20.3192234  82.6163101  53.5456963  20.7632103  83.3882141
  53.7089043  19.5148220  82.5480499  84.1122360   8.8939466   7.3352103
  83.1847458   8.8048096   7.1159883  84.5592957   8.8958178   6.4888258
  74.0703888  31.9717236   7.0492907  73.3876724  31.4535713   7.4755039
  74.4992676  32.4388657   7.7662792  70.0436859  20.0039673  44.3747597
  70.9134445  19.6195297  44.4841347  70.1023712  20.5009422  43.5587921
  63.2904587  11.7334738  29.1528778  63.9078026  11.3180084  28.5507889
  63.8413925  12.1072550  29.8406200   1.7001989  13.1028652  14.2960558
   1.7735176  12.3180170  14.8390760   1.3658923  12.7837782  13.4578104
   8.4054556  16.4017010   6.1914515   8.4750700  17.2343903   6.6583695
   9.2403736  16.3144722   5.7315230  31.0052376  44.4439926  40.0152206
  31.5764370  43.6805420  40.0995102  31.2197285  44.9883995  40.7727470
  41.2377434  48.1627197  62.7568893  40.8705978  48.3121948  61.8856277
  41.9227142  47.5084496  62.6191330  80.5683060   6.5932727   2.0954335
  80.3595581   7.4480305   2.4723208  81.3902512   6.3404374   2.5158079
   1.0648305   6.8571143  16.5400791   1.5113631   6.1321669  16.1027107
   1.7440090   7.2698450  17.0735607  83.2209702  58.7566261   7.4896154
  83.7108154  58.8380737   8.3079357  82.3604050  59.1259117   7.6878347
  79.7739868   5.3949046  67.2121811  79.2522812   5.3941088  66.4096451
  79.8320312   6.3178587  67.4591980  45.0457764  10.1078281  61.0096970
  45.7486038   9.4703932  60.8834305  45.3235664  10.8734026  60.5067444
  12.0098810  56.3945007  67.6211472  11.4492311  56.3057213  66.8504181
  11.8679924  55.5868187  68.1148605  32.7187958  31.0637722   0.5531836
  32.5733452  31.9738979   0.8115390  31.8938675  30.7947712   0.1490022
  55.7392311  44.6478577  75.4174042  55.4789810  45.2848091  76.0828323
  54.9551430  44.5270805  74.8818283  36.0161057  63.0138092  74.1381836
  36.7862282  63.5229645  74.3909836  36.0896721  62.9240036  73.1880493
  65.8935394  23.9754105  24.6607227  66.2876511  24.7840500  24.3336048
  66.0562057  23.9941235  25.6038151  58.3667908  23.8874111  16.0885429
  58.9135323  23.2007523  15.7066975  57.9556541  24.3124809  15.3358717
  59.0803299  11.8526611  64.4072647  58.1871529  11.6100941  64.1630783
  59.6317863  11.4301128  63.7487984  83.1497192  13.5315161  78.9813461
  82.7997437  14.3232489  78.5727997  84.0959549  13.6736155  79.0073090
  33.7070694  14.1176701   8.4366179  32.8191452  14.4672756   8.5114164
  34.0521812  14.5100012   7.6346164  72.7353210  35.3824577  64.2768021
  73.3857574  36.0600815  64.0924377  72.2225418  35.7343102  65.0044632
   1.6760142  60.4211121  43.1078529   0.8741208  59.9167976  42.9704933
   1.5954314  61.1660728  42.5122299  32.6129417  63.2114372  54.9979324
  32.2744675  63.9174347  54.4472656  31.8924770  62.5835648  55.0521317
  52.5726738  56.7865639  27.3018227  52.7656364  57.0843735  26.4128304
  52.1538048  57.5384598  27.7206726  84.6768646  45.5170403  86.4317551
  84.7858200  46.1345329  87.1549835  84.7113037  46.0611610  85.6449966
  82.8928757  25.2192574  79.4176483  82.1997757  24.7449589  78.9584274
  83.3910141  25.6482925  78.7219315  23.2873230  68.1096268  86.4201202
  23.7273788  67.2797775  86.2359238  23.6359844  68.3824081  87.2688065
  52.7622643  28.1285362  55.1994667  52.2471123  28.7211876  54.6520920
  53.6661797  28.4220715  55.0854149  32.1075439  70.2315674   1.1310844
  32.5467644  69.4040604   0.9347401  31.6171131  70.0576782   1.9344990
  83.1790848   0.6792470  52.8697929  82.6148605  -0.0507920  52.6149940
  82.7418213   1.4542994  52.5171928  16.5077248  67.6854858  35.6462059
  16.5861664  68.3391190  36.3410759  17.3952885  67.5976257  35.2987251
  36.8501968  58.6190910   1.3560236  36.5838737  57.9100342   1.9412932
  36.8207550  58.2314758   0.4813119  71.7244186  36.6460342  19.1475906
  71.7474823  35.6892090  19.1341782  71.5993195  36.8954582  18.2319641
  72.9411011  39.0772133  17.6417580  73.0600052  39.9549065  18.0047302
  71.9942551  38.9896736  17.5319977  70.9833527  12.4735041  82.8214645
  70.2056808  11.9606266  83.0414963  71.7021561  12.0191116  83.2608719
  10.5925884  52.1841164  61.5030441   9.8666296  51.7453308  61.0595512
  11.0591831  51.4798203  61.9530334  58.2446899  60.5160294  30.2082767
  58.9873428  60.4770927  30.8109226  58.0982742  61.4516182  30.0687313
  72.6633301  61.2976570  34.8533630  72.1366577  60.8590126  35.5215225
  72.2690277  61.0294991  34.0233917  29.8845615   1.1353481  68.9681015
  29.6328411   2.0434241  68.7999802  29.2340412   0.6152172  68.4963837
  56.4609528  56.0206032  63.3200798  55.6652184  56.2001648  62.8192825
  56.3665276  55.1106339  63.6016388  77.3482742  57.1343651  62.7234116
  77.1196899  58.0619507  62.6636620  76.5064850  56.6789017  62.7099571
  76.0012894  45.4569817  15.8321037  75.7622452  44.7552757  16.4376583
  76.3450317  46.1514969  16.3939934  66.1875458  35.9868050  38.8947716
  65.9316483  36.1466522  37.9863701  66.9866028  36.5005074  39.0124474
  33.3088417  38.0953941  74.3423080  33.2934418  37.1478043  74.4766998
  33.6320419  38.4495811  75.1707611  32.1719856  46.9972725  37.0098801
  32.7765999  46.9379692  36.2701797  31.3581009  47.3261261  36.6282043
   8.8807306  48.3600197  66.7788467   9.5185490  47.8450203  67.2730103
   8.5954466  49.0387802  67.3905106  27.0460854  51.4768677  24.5358257
  26.5387630  51.5899696  23.7320442  27.0304317  52.3386269  24.9521904
   7.8031340  22.8675079  10.8482513   8.5860252  23.2968769  10.5033531
   7.9931421  22.7328968  11.7766953  44.0906105  44.0709343  19.8981514
  44.6146431  43.2991028  19.6839085  43.2568626  43.9260712  19.4508076
   9.8872499  43.3310585  62.7841606  10.0020695  44.1772003  62.3516235
   8.9842796  43.0819321  62.5871506  73.0709610  49.0280342  32.7167130
  72.7589035  48.8418083  33.6022491  73.1345978  48.1688690  32.2995605
  23.4950886  57.5967865  25.1065769  24.3189812  57.7984390  25.5501671
  23.3336239  58.3549347  24.5449963  82.2594604  36.6982346  26.6130276
  83.1709671  36.4208794  26.5210571  82.2275085  37.1381264  27.4625607
  56.4542618  47.8573036  11.0906858  56.9681053  47.1231003  11.4270477
  57.0857239  48.5712967  11.0029249  15.7336674  26.4726067   6.0983558
  15.9440317  25.6252899   5.7058859  16.4976311  27.0187092   5.9129868
  36.6052475  69.7298813  85.4761734  36.4672318  69.1778183  84.7064819
  37.5197258  69.5811920  85.7166977  10.5809679  31.9268932  62.9403610
  10.4660339  31.2851810  62.2394829  11.3939037  31.6659222  63.3730965
  42.0034790  52.1798897  68.4765396  41.3324165  51.6977959  67.9933319
  42.7508736  52.2135429  67.8794632  20.9224949  44.0470200  54.8343773
  21.6138725  44.0517845  55.4963493  20.1178093  43.8937645  55.3295784
  79.5524139  42.8226471  72.1017151  79.3536987  42.3802986  72.9269867
  80.4646301  43.0984116  72.1913681  56.5834160  64.5449371  38.6819420
  56.0638428  63.7585754  38.8490067  56.8140221  64.8690796  39.5525665
  82.2565689  69.8940735  20.8415909  82.1933670  70.8127975  21.1027012
  82.9869308  69.8704910  20.2233276  51.7713470  16.5480080  81.2067719
  51.7114868  15.9398441  80.4700317  52.4911613  17.1348591  80.9750366
  83.0584183  54.1787033   3.5538447  83.0976944  53.4234276   4.1405702
  83.0395126  54.9359093   4.1390934  24.0548897  26.4945774   6.8660903
  23.1448364  26.2056465   6.9335866  24.4478340  25.9009209   6.2262473
  14.4531078  44.8064919  80.0557480  14.5115414  44.6107903  79.1205902
  14.5733557  45.7545547  80.1100159  83.9274445  47.0310898  61.0748329
  84.4759293  47.7185516  61.4527054  83.5293884  47.4381409  60.3053551
  69.6030045  32.4551659  73.3329697  68.9381027  31.8493824  73.0056152
  69.8191910  32.1250687  74.2050552  59.5318909  43.5685959  26.1916428
  59.7995033  43.9009705  27.0484638  58.5866165  43.7162819  26.1620235
  50.5005684   8.3838968  71.3070297  50.0293617   8.1287861  70.5138626
  51.2316589   7.7682981  71.3597412  66.1663971  29.6170940  32.8632545
  65.9403458  30.4328384  32.4163818  67.1231689  29.6168251  32.8918114
  56.3272057  26.0671062  37.4647636  56.8701973  25.6962433  38.1603584
  56.4114914  25.4482346  36.7394180  46.7965050  51.6856232  41.4875908
  47.1964455  50.9844971  40.9730988  46.1621857  52.0867462  40.8934746
  66.2078171  34.1650810  77.4742279  67.0643234  33.8423080  77.1941299
  66.4072647  34.8726006  78.0873108  46.8523407  19.4326992  70.9790955
  46.2122803  20.1442413  70.9630051  47.3180313  19.5481339  71.8073730
  54.1769753  39.6080704  74.1467361  55.0129128  39.1661797  74.2956467
  54.4045753  40.5355415  74.0817184  14.0702143   3.1932917  27.9174805
  14.9299459   3.1636443  28.3372612  14.0653057   2.4390614  27.3281212
  18.1838570  67.9288330  16.7551498  18.5609627  67.1272659  16.3925056
  18.9261189  68.3843384  17.1523876  64.5539398  20.6976700  16.8734150
  64.2790833  20.5405235  17.7767391  63.9815140  20.1384888  16.3481712
  74.0647354  52.8575821  81.7187042  73.1181030  52.9965439  81.6900253
  74.3979034  53.5856476  82.2432480  19.2422695  57.3389854   9.6721830
  18.9784203  56.4301033   9.5288506  19.9719181  57.2821198  10.2891207
  37.1325340  22.9606628  87.3355408  37.2825966  23.1749821  86.4147873
  37.9344559  22.5171204  87.6119843  55.4362640  68.4181366   7.0853481
  55.0043068  68.9030609   7.7885485  55.8383522  69.0942917   6.5400338
  41.3447762  13.9045858  43.7400055  41.1171379  14.6004896  43.1234589
  42.2535286  14.0853081  43.9803047  15.9996548  62.8966255  64.4449387
  15.4380312  63.6717072  64.4371719  15.3910818  62.1604958  64.5080566
  68.9808655   8.7189713  38.1406555  68.2890701   8.1315069  38.4448547
  69.6128235   8.7371874  38.8593559  81.4242706  65.3621902  61.1524811
  80.6911087  65.1800842  60.5646591  81.1690445  66.1614380  61.6132317
  86.1869125  29.1797600  67.5356827  86.6698227  28.5169296  68.0293350
  86.5675964  30.0119705  67.8162842  64.0433731  50.7819214  57.5158730
  63.1839523  51.2010193  57.4713173  64.4293900  50.9347725  56.6534004
  26.0641289  39.4445839  32.4678612  26.1503620  38.8004417  33.1706276
  26.1734600  38.9374847  31.6634197  81.5823364  30.6116333  36.8756180
  81.8436432  31.3801250  37.3829346  81.9964447  30.7362289  36.0216713
  18.0528870  39.5217743  75.9456100  17.8201084  39.8099098  75.0629883
  18.0762043  38.5666313  75.8873978  68.2409363   0.9658377  35.8684807
  68.0472488   1.6847157  36.4700890  67.7240372   1.1616495  35.0870056
  39.1773224  14.3002710   4.2362618  39.7585258  14.2950420   3.4757318
  38.5426445  14.9916096   4.0479312  65.0195084  22.3715591   3.0706193
  65.6030807  21.6494961   2.8375936  64.1769791  22.1328697   2.6840992
   1.8839691  27.3810329  11.9784441   2.8353868  27.4269581  11.8839598
   1.7127889  26.4767895  12.2416420  86.9482651   1.7496307  79.3253403
  86.2160339   2.2731121  78.9997025  86.5436478   0.9408774  79.6390839
  21.7842464  48.7194595  11.2523785  21.8828278  48.8973770  12.1877184
  22.3464279  49.3656921  10.8250961   4.2565446  40.6046753  60.7800140
   4.7692752  41.3972015  60.6211433   4.8827510  39.9854507  61.1550598
  13.9858751  58.3201904  23.6054325  13.7549295  57.4019928  23.7461605
  14.5121107  58.5546761  24.3698463  28.1651154  59.5303764  72.1781158
  28.5262222  58.9769058  72.8705750  28.5643311  60.3879814  72.3243103
  64.7577209  48.8569527  59.2603760  64.5301208  49.7032623  58.8754196
  64.5624313  48.9573212  60.1920509  61.3126411  38.7095528  63.6357155
  60.4297028  38.3641548  63.5039940  61.3308105  39.5206108  63.1276932
  65.1685104  62.6389580  55.1148453  65.6076202  63.3937416  54.7227707
  65.6535645  61.8821564  54.7858887  31.2214279  12.7388315  13.8615971
  31.7960644  13.1069498  14.5328007  30.8195553  13.5015926  13.4457531
  62.9859810   4.2564158  76.7860870  62.5694237   4.6235914  77.5657578
  63.3863449   3.4416754  77.0896301  76.6488571  70.7548676  15.0066967
  76.7219391  71.2555008  14.1941328  76.8875580  71.3771667  15.6937170
  69.7282333  26.5535831  42.5373344  70.1116791  27.3090687  42.0918617
  70.0794373  26.5963173  43.4267540  51.0712013  45.4949417   5.0259509
  50.8999519  44.7868118   4.4051008  52.0056725  45.6780396   4.9286251
  68.0323410  11.1906414  49.9523773  68.2254181  11.0742884  50.8826561
  68.6812515  10.6487560  49.5034790  75.4888992  49.5213966   4.3586802
  75.8345795  49.6965065   5.2339363  75.1994247  48.6096802   4.3934789
  56.6674690  55.3222008   8.3191929  56.1943817  55.2945480   9.1508512
  56.8189354  56.2539520   8.1606684   6.2686782  51.8480644  88.7392654
   6.3014441  51.2133942  89.4550552   6.0016093  52.6667786  89.1571350
  27.9099674  18.6186562   7.1486487  28.6795654  19.1170959   7.4234362
  27.1678219  19.1118946   7.4981685  36.9089165  51.5687141  56.4281349
  37.5846252  51.4801292  55.7559700  37.3767700  51.4516335  57.2549591
  25.0727310   4.1988225   5.3858857  25.1631775   5.1220870   5.1500173
  25.3489609   4.1573415   6.3014226  11.3947506  46.4995461  81.8386002
  11.0744619  47.2011681  81.2717056  12.1594400  46.8747253  82.2753220
  11.7128696  34.9676971  73.9506683  11.6102533  34.0200806  73.8627625
  11.9491873  35.2655296  73.0722122  16.5021629  44.0038490  73.8374710
  15.7878847  44.3755188  73.3198776  17.2890720  44.4348907  73.5039825
   8.2331171  62.1076851  35.7623215   8.8929338  61.6717186  36.3015900
   7.4702778  61.5310211  35.8043594  39.8059769  56.2939034  32.8342819
  39.5842667  57.1327591  32.4300537  40.6800880  56.4281235  33.2005424
   9.4534674  11.9090910  84.9169388   9.8809233  12.7355328  84.6922073
   9.5283747  11.3774471  84.1244888  81.8771591  46.8190002  63.6681404
  82.0593643  46.4027786  62.8256493  82.0815353  46.1457062  64.3170929
  28.1246738  27.1851139   6.6974955  27.9214783  26.3367043   6.3036113
  28.2715759  27.7665253   5.9514303  31.2619858   6.9530368  86.2758255
  30.9508343   7.6620936  85.7131042  31.3968048   7.3658419  87.1288452
  77.7835236  39.8311882  50.6635323  77.5480118  38.9729347  51.0158997
  76.9921646  40.3590965  50.7697906  12.4327984  44.6403084  13.2003908
  13.1510916  44.2070389  13.6614408  12.6718874  45.5671654  13.2016487
  81.0680313  29.1745567  87.8561249  80.2098160  29.2682590  88.2695389
  81.3382721  30.0714703  87.6592712  62.8800888  35.9200668   5.5674639
  63.1898499  36.0803528   4.6760664  63.0296555  36.7472229   6.0253658
  32.5326424  68.1436615  70.6780319  32.9159851  67.3939285  70.2228546
  32.0440407  67.7581177  71.4052505  18.8875866  50.7214241  22.6843414
  19.8025303  50.9775925  22.5682011  18.4708900  51.4907646  23.0725594
  66.3108521  14.2348566  85.3610535  66.0529938  14.4695673  86.2524796
  65.5033798  14.3049641  84.8518372  85.3500900  39.9855576  62.4569244
  85.7029037  39.3333931  63.0622597  84.4220810  39.7638626  62.3802299
   2.1394238  58.1150169  80.5324707   2.7993271  57.9580688  79.8571014
   2.0970583  57.2932625  81.0215073  40.1680489  60.9561043   7.7916794
  40.9638252  60.4620094   7.5946026  40.2141113  61.1184845   8.7338810
  28.5736027  28.2100124  14.7249784  28.0825005  28.7308445  15.3604193
  28.0038624  28.1697578  13.9568586  51.8914261  65.4124680  16.2464390
  51.4683685  66.2652054  16.3468990  52.0214043  65.3192825  15.3026943
  24.3095970  49.4801064   9.6328230  24.6269550  49.3430061   8.7402325
  24.9364681  50.0920486  10.0185595  54.5327606  28.0897217  84.2035141
  53.7925987  27.7144470  84.6805573  54.4939117  29.0259151  84.3991318
  57.4664993  14.4832506   6.8042507  57.5156212  14.8550730   5.9235883
  57.2063065  13.5725908   6.6655774  70.5336304   4.0823975   2.6413944
  71.0470276   4.5246162   3.3174880  70.4059982   3.1958792   2.9790723
  73.3807678  58.7994957  70.8537827  73.9439545  59.0362511  70.1168976
  73.7231827  59.3069382  71.5896378  13.2784729  44.5066109  29.2082386
  13.9633951  44.6386070  28.5527306  13.4129505  45.2124672  29.8406296
  63.0130577  50.2515526  14.6415205  63.8396797  49.9366531  15.0072556
  63.1238136  51.2004166  14.5813160  66.4596024  20.4643650  53.7867508
  67.1458130  19.8176041  53.6223183  66.7050095  21.2162800  53.2476501
  57.0446091  13.6854744  84.7546234  56.4028778  13.0955048  85.1500320
  56.8103714  13.7069931  83.8267746  55.8510780  45.2967987   8.7346716
  54.8946342  45.2587700   8.7354650  56.0854111  45.4509048   9.6498604
  50.8453178  49.0851746  34.6145363  50.3285141  49.3200760  33.8438416
  51.0143967  48.1484985  34.5131454  60.2254562  56.5167122  88.1704865
  59.9800682  57.2778206  88.6965332  59.9206619  55.7654839  88.6793976
  30.8748188  54.3540955  55.8705368  31.5089207  53.6888351  56.1380806
  30.7983494  54.2446404  54.9226952  75.9968796  25.1723385  55.0076752
  76.1981659  25.4230976  55.9092522  75.2141190  25.6774235  54.7876625
  19.9192200  63.1951256  49.1964760  20.0418625  63.5688934  50.0691071
  20.1775837  62.2782249  49.2901688  64.4327240   3.6767998  85.0045090
  64.6944580   4.2834330  84.3118896  64.9094696   2.8700979  84.8091202
  42.0150223  22.3113117  67.5939941  42.1632195  21.3660755  67.5657501
  41.0690346  22.4021206  67.7084045  50.4949646  57.3096275  83.9449921
  51.2288246  57.3019295  84.5595016  50.8763275  57.0293884  83.1129684
  26.7415485  16.6211700  84.3241577  26.8183880  17.5326862  84.6060562
  27.6211224  16.2607174  84.4366531  46.7004509  53.9140663  59.3211708
  46.2431221  53.1040916  59.0952797  46.9555550  53.7978287  60.2363968
  49.9834404  71.1452560  69.6711349  50.8643875  71.4910660  69.5276794
  49.4390564  71.9221344  69.7989578  77.3575516  52.9870796  54.9246483
  77.4054642  52.1606483  55.4052124  77.6298981  53.6495285  55.5596466
  60.3720207  21.7368317   4.6855865  60.1583481  22.6526394   4.8641138
  59.8108406  21.2395706   5.2806005  61.2965202  48.3275146  73.2008362
  60.9996033  49.2359505  73.1477203  61.3927727  48.1614418  74.1385956
   4.1149797  41.5021706  24.7524166   5.0562797  41.5396080  24.9220753
   4.0233221  41.7937202  23.8453178  72.5061188  54.8252411  84.7918854
  72.4361496  54.6561775  83.8523331  71.6683350  55.2243767  85.0264664
  59.3512421  41.4324532  14.9977179  59.1415863  41.3968620  15.9309978
  59.8565598  40.6359138  14.8352070  77.6284103  18.1012497  15.7232380
  77.0387573  18.4781532  15.0701857  78.0302811  18.8587360  16.1486149
  50.9657478  39.6371231  71.1735764  50.8836708  39.1529160  71.9951859
  50.0642776  39.7557182  70.8743744  15.9943686  15.8225327  75.6790848
  16.2363663  16.0145035  74.7730942  15.7084579  16.6642227  76.0341110
  41.7256546  44.3855591  62.7472839  41.0020218  44.6555977  63.3126717
  42.5077515  44.7305870  63.1779976  51.0871696  47.2134171   9.0194778
  50.9584427  46.4735794   9.6130228  50.4550247  47.0684929   8.3154755
  15.0209312   6.2291446   3.4305611  15.4335880   6.8984075   3.9764853
  14.0911131   6.2789922   3.6523387  20.3695583  46.2397499  30.8980045
  20.4456425  45.5414886  31.5482922  21.1961918  46.7180519  30.9623241
  41.3749352  36.1955986  59.0302696  42.2041397  35.7608948  59.2294769
  41.0308533  36.4579277  59.8840981  51.7786217  10.0064888  25.6526737
  51.5911179   9.4191370  26.3848553  50.9224777  10.3474321  25.3938065
  19.4941692  60.9041557  74.7224350  18.9164448  61.6363106  74.5069809
  20.1734104  60.9286575  74.0484467  14.9605789  42.4455910  56.2271767
  15.5187912  42.2107010  55.4859238  15.3255091  41.9581642  56.9657364
  53.5681496  24.5839767  84.3426437  53.6461563  25.1269169  85.1270981
  52.6316566  24.3992138  84.2714005  40.0208664  68.0229874  15.0772648
  39.9462242  67.3862152  15.7880239  40.9446259  67.9963913  14.8278856
  55.4570236  27.9361324   4.7288423  55.1223640  27.0414772   4.7907224
  55.1471214  28.2495422   3.8791561  60.0844040  70.5521774   7.6982150
  59.2929115  70.2831726   8.1644945  60.4635506  71.2391434   8.2464371
  65.5609207  69.1124268   4.9185619  64.8852234  68.4493103   4.7773433
  65.5465317  69.6425323   4.1216850  22.1061897  47.5538292  45.6478043
  22.9388657  47.7028160  46.0957832  21.8113098  48.4282036  45.3933487
  18.5305977  62.1651115  63.3615036  17.6510124  62.1449089  63.7385368
  18.8686142  61.2795181  63.4945450  12.2734594   1.4610269  59.0782356
  12.5300684   1.9580377  59.8549995  12.8480425   1.7862412  58.3851852
  20.6726761  40.0619698  70.3384933  20.0453205  40.0190926  69.6168137
  20.4912167  39.2803230  70.8603516  47.6012459  28.3193798  26.1524754
  47.3790359  28.9040756  26.8770332  48.0767517  27.5978241  26.5641613
  80.3789062   5.6934724  83.8781433  80.9864044   5.5630722  83.1500092
  79.5717239   5.2628188  83.5966797  82.0144653  15.9722672  72.7034454
  81.8572617  15.1622286  72.2183075  81.7368851  16.6668625  72.1061859
  72.0934982  33.1222343  28.6198921  72.5340118  33.6262703  27.9356956
  71.9028702  32.2782631  28.2104969  30.0241241  54.5373535  17.9221478
  30.1145592  54.8902931  18.8072968  30.5948563  55.0873756  17.3855171
  44.7638130  64.3190308  72.0171509  43.9267311  64.3930359  72.4754639
  45.3692474  64.8472366  72.5374222  43.7182083   3.0891833  22.8303032
  43.8794441   3.9876673  22.5422707  44.1451874   2.5452285  22.1684589
  78.6668243   8.1982327  64.9818649  78.4020538   9.1161089  64.9216156
  78.8344116   7.9373593  64.0762787  27.6668854   5.2441206  78.5551224
  26.8516026   4.7991619  78.3237000  28.2588673   5.0530815  77.8275986
  47.6991310  15.4739923  53.4252815  48.4282799  15.9901295  53.0815163
  47.2795639  15.1049137  52.6481247  50.7508316  48.8741379  85.4538040
  50.3477974  49.4297829  84.7866821  50.3305092  49.1389847  86.2719803
  70.9311218  41.4210739  85.7079849  71.7243271  41.2198372  86.2045364
  70.2322464  41.4194794  86.3620453  59.8805847  64.5797577  37.9301300
  59.6099434  63.9898682  37.2265625  59.6539574  65.4532166  37.6108360
  86.7506866  49.2634468  63.6917458  85.9439163  48.9050140  64.0617065
  87.0284348  48.6125946  63.0471649  63.0924911  47.1285973  38.9856339
  63.8408699  46.5465698  38.8537064  63.1304970  47.7383842  38.2487831
  42.7248459  37.3716507  16.1655407  42.7487602  36.4162674  16.2194061
  41.8877525  37.5669174  15.7443838  35.3954506   9.1875534  14.4415560
  35.2837715   8.8542223  15.3318644  34.9104424  10.0127258  14.4321537
  24.9200001  47.3285789  59.8050766  24.1930218  47.3055115  60.4273338
  24.5966320  47.8614006  59.0786057  76.9237137  24.4446564  77.2802048
  76.8256378  25.3277340  77.6362762  77.2130280  23.9170170  78.0245972
  69.6245651  36.1034393  11.9934263  69.8176651  35.2558441  11.5927687
  68.8729019  36.4349060  11.5021391  12.0497150  31.5247002  20.7150669
  11.2896194  31.2685184  20.1927109  12.1261864  30.8392887  21.3788395
  86.0145569  52.9762917  51.0488625  85.5292664  52.1766624  50.8455925
  86.9221115  52.6877060  51.1452446  31.6674099  42.5626755   2.9664450
  31.8306618  42.0833931   2.1541221  32.4986229  42.5225105   3.4394181
   0.9270335  19.3955498  78.3096161   1.7605382  19.5738773  77.8740692
   0.8536499  20.0792599  78.9754868   3.4263909  14.1211052  17.3590145
   4.2972693  13.7845173  17.1480370   2.8519971  13.3583822  17.2915039
  60.9777184  15.3328066  76.6892242  60.1281967  15.5903473  77.0473099
  60.9895668  15.7067261  75.8081589  83.9590149  42.5458488  26.7657223
  83.9911728  41.5897293  26.7978745  84.0443192  42.7572403  25.8360615
  70.8944626  48.1117401  56.2684593  70.1951294  47.4612770  56.3322182
  71.1762772  48.0716248  55.3545685  61.5854225   0.8256211  74.3776093
  61.8246269   1.6564819  73.9669037  60.7268753   0.9897156  74.7677460
  41.3377953  19.9626274  77.7230453  42.0988617  19.3892708  77.8139725
  40.6519699  19.5332279  78.2344055  20.8014030  59.9388390  87.0086670
  21.2241096  60.3202019  86.2391815  20.0436878  60.5012894  87.1691208
  84.9544067   7.0794907  15.7019472  84.9095459   7.8229551  15.1007147
  85.8509674   7.0960226  16.0368099  42.3305893  56.1977730  72.1054459
  42.0851631  55.8569794  71.2453003  41.9858742  57.0906792  72.1165695
  85.3110123  61.8901482  47.4470062  84.9228287  61.6707077  48.2939987
  85.3230515  62.8471146  47.4297791  86.6935883  36.0578880  12.0064821
  85.7612915  35.8507538  12.0709333  86.7251968  37.0141983  11.9799767
  27.3788605  59.3798180  28.1728249  28.3080311  59.3321609  27.9478741
  27.3431644  59.1327057  29.0968876   2.1023169  17.7095070   7.2875757
   3.0553670  17.7866039   7.3321109   1.9413744  16.7689590   7.2120895
  78.3239059   3.6261413  38.5133781  79.0879593   3.2358587  38.9378014
  77.6621399   3.6686900  39.2036591  31.0870457  10.5353975   3.2241349
  30.9131546  11.3976412   3.6016660  31.9719753  10.3192606   3.5181048
  20.5594292  60.3638268  48.6830330  21.2488098  59.9532852  49.2049942
  21.0280552  60.9327621  48.0723534  20.3365002  47.9948463   1.6908334
  19.4308834  48.1059532   1.4014453  20.3662491  48.4139748   2.5508792
  28.7066021  36.1538734  13.6636963  27.7555828  36.0789337  13.5850916
  29.0475903  35.4159012  13.1583729  32.2919464  59.5747910  70.2341232
  31.8701057  58.8906631  70.7539749  32.7024193  59.1050987  69.5080872
  15.0867109  51.1182938  80.3736115  15.1926079  51.8632240  80.9653015
  15.3699684  50.3620644  80.8875275  32.1450386  51.6087151  30.8314781
  31.2297344  51.8164330  31.0193615  32.3082047  50.7940521  31.3068027
  70.8000259  47.3274231  39.9017029  70.8271103  46.9212303  39.0353889
  69.9456787  47.0802040  40.2555466  82.0246353  48.4490852  35.3602448
  82.8418045  48.0677872  35.6813011  81.4801636  48.5417404  36.1420326
  68.6632385  22.2922821  44.1841469  68.5818710  21.6414337  44.8812904
  68.1616058  23.0443211  44.4988441  19.8178024  58.5236778  75.8773346
  19.8221512  59.4206352  75.5431442  20.2157917  58.0055161  75.1778030
  46.1780396  20.4846153   1.5136960  45.3573952  20.1389408   1.8648069
  46.4105453  21.1987057   2.1072011  18.3107700  19.9516354   9.8390255
  19.0733414  19.8349590  10.4056854  17.9204807  19.0796051   9.7801170
  85.4722519  37.8557663  66.9704971  86.3226242  38.1808777  66.6748505
  84.8674088  38.5778732  66.8003235  39.6325531  62.8857231  48.2030602
  39.1263275  62.6392517  48.9771538  39.3489876  63.7783928  48.0056763
  23.7973003  66.6574249  60.5823669  23.7501450  66.0379105  59.8542175
  23.3896866  66.1966248  61.3156738  46.0685616  22.2546329   6.9870000
  45.4992256  22.4414177   6.2405400  46.5943871  23.0476112   7.0915017
  28.7182522  42.6565018  40.2167244  28.4385109  42.5052643  41.1195564
  29.1978779  43.4841995  40.2500534  34.8661995  52.5054207  53.5456200
  35.3411102  52.1147461  52.8120918  34.8780212  51.8311577  54.2249298
  73.4890442  29.2325745  55.6718597  73.1597366  30.1009274  55.4400101
  74.0478134  29.3839893  56.4341469  49.9883499  51.6454048  28.7647533
  50.3396912  52.3843155  29.2615433  50.3229408  51.7728767  27.8770428
  81.4459915  31.5889606  81.7152328  81.6283798  31.1222477  82.5307999
  82.2325363  32.1110077  81.5569763   1.5333570  35.9620361  18.0505066
   1.4993715  35.4475708  18.8569794   1.0148703  36.7433395  18.2427902
  48.6610985  37.3557205  62.2009888  48.8490448  36.4659996  61.9021492
  47.7597923  37.3155899  62.5207787  22.9931431  51.9902039   1.2763705
  22.3331165  52.4398651   1.8040104  22.9482975  52.4179573   0.4212390
   4.1772928  62.0865669  26.6431923   3.2895072  61.8662376  26.3611965
   4.3926067  62.8822632  26.1566296  58.2145767  29.4786568  66.7015228
  59.1703377  29.5255013  66.6779709  58.0226326  28.5450439  66.7895813
  29.8861256  53.0991516  23.6217365  29.8442974  52.6127510  24.4450798
  30.6366501  52.7249184  23.1603317  16.1060028  27.8481464  67.2328415
  15.4591427  28.5519981  67.1838913  15.6600809  27.0867996  66.8617096
  43.2000008  69.5996628   0.3178622  42.4820976  69.5811920   0.9507176
  43.0511055  68.8330688  -0.2356724  82.6345062  58.4583435  13.8984470
  83.0540390  59.2985687  14.0835056  81.8403931  58.4642944  14.4328499
  71.3915634   3.1571448  42.5826378  72.2328720   3.1751709  43.0388260
  70.7766953   2.8080232  43.2278328  68.6500854  36.0336533  41.4657288
  68.2910156  36.6662292  42.0879440  68.6208496  36.4846191  40.6219254
  62.6398163  22.1560135  86.0256958  63.0859718  21.4219112  86.4479141
  61.8212204  21.7828045  85.6988220  21.3371639  17.7895660  14.0011711
  20.6892509  18.4884777  13.9119301  22.0750828  18.0769596  13.4634781
  65.7224426   6.4800882  77.8707962  65.8288498   5.5753474  78.1646576
  66.4242096   6.6087580  77.2326736  38.1231422  18.8489819  74.1367111
  38.0754814  17.9002724  74.2546539  38.9585457  18.9934216  73.6923370
  38.2834129  21.7030926  21.1799812  38.9208107  21.4152832  21.8335247
  38.8074760  22.1483631  20.5141563  48.6452904  63.6716309  73.3479156
  48.6272888  63.0103188  72.6561279  48.7251511  64.5038071  72.8817291
  70.8083649  12.6021595  79.7289963  70.4045639  12.7019882  80.5910950
  70.5791550  13.4060183  79.2626190  45.6288948  16.8983116  33.9062881
  45.6340981  15.9704132  34.1412582  45.8695488  16.9121609  32.9799385
  54.1673927  63.9524384  31.4875946  54.3919792  63.8845634  30.5595932
  54.5682907  64.7739410  31.7715740  61.2049408  37.2019691   2.7446020
  62.0309792  36.7191162   2.7719753  60.5303764  36.5228577   2.7461717
  54.6534462   8.7246294  44.0193863  54.8246231   8.1241808  44.7449150
  54.7656822   8.1892862  43.2338638   6.7943635  35.2757072  78.6116638
   7.5960150  35.5776253  79.0387878   6.9865913  35.3302727  77.6755524
  58.8554993  39.4254189  69.4969711  57.9733696  39.1074867  69.3046341
  58.9291000  40.2415733  69.0022964  50.0408669  16.4857578  51.7117920
  50.9035645  16.7063313  51.3606110  49.4875984  17.2293053  51.4724960
   7.5189672  48.8123322  12.3194885   7.3249788  48.7319069  11.3856087
   7.0536537  49.6026421  12.5935755  43.5492363  32.9660568  26.3517513
  43.2808876  33.6818466  26.9278316  42.9822540  32.2351608  26.5978298
  16.8056183  36.8241539  15.6507139  17.0875912  37.2811699  16.4430904
  17.5068531  36.1971931  15.4734526  22.4401245  50.2830048  67.5797958
  22.1811562  50.7185516  66.7677231  22.7035999  49.4042206  67.3067627
  22.8969078  48.6368866  75.1013489  23.7202415  48.8761024  74.6757584
  23.1578255  48.0655174  75.8236389  26.5201931  43.8298073  16.9312305
  26.1577663  44.6676674  17.2191010  26.0673637  43.1769104  17.4649982
  40.9637718  32.7053108  19.3649635  40.8515549  31.9095478  18.8449669
  41.7087975  32.5156975  19.9352417  38.3141174  68.9673233  42.7585487
  37.9024086  69.8094177  42.9524689  38.3611603  68.5231171  43.6051292
  49.1081772  55.9933891   6.6558361  49.2363091  56.2760658   7.5613232
  48.2245255  55.6256828   6.6424799   5.8556504  56.0504837  32.8106880
   5.0396838  55.8000565  33.2439499   5.6262736  56.1086998  31.8832035
  77.7498550  20.8397732  11.0201740  78.1822586  20.0527515  11.3516102
  78.4301376  21.5128860  11.0392809  73.1811523  47.2661705  63.0423431
  72.2351532  47.1204605  63.0518494  73.5414658  46.4742737  62.6432076
  37.6898422  60.4344406  16.3838921  37.2877693  60.3080368  15.5244789
  38.1565170  59.6159363  16.5527115  48.0862961  47.7623520  27.2105656
  48.2552795  48.2173080  28.0356064  47.9102020  48.4628639  26.5824699
  65.9829788  21.7912197  77.5932312  66.7705612  21.2766380  77.7697296
  65.4027176  21.1889381  77.1276245  60.2843094  68.1823044  40.4544678
  59.9072037  68.6023331  41.2275162  60.1205864  68.8004303  39.7421837
  51.4819908  67.4395447  18.8420334  51.6377335  66.7065201  19.4375610
  52.3174896  67.9056931  18.8123417  73.9583740  -0.0314538  72.9455719
  74.3657227   0.7653208  72.6057892  73.8278198   0.1448837  73.8772888
  45.7200241  61.5220337  33.8835602  46.1612358  61.1647873  34.6542358
  45.9829521  60.9437904  33.1675072   0.4158364  45.8177414  28.5221062
   0.8942168  45.8886604  29.3481541  -0.3528531  45.2886314  28.7351551
  11.1740875  60.9074898  72.4340668  11.1849575  60.8973579  73.3911514
  11.8777771  61.5099030  72.1929169  82.5622025  62.9372902  46.7691078
  83.0733490  62.2203407  47.1445351  81.8328552  62.5046082  46.3251762
   2.0038943  30.8394642  76.7816315   1.9912745  29.9312229  76.4796829
   1.3065695  30.8840866  77.4358292  35.5443115  66.0192566  71.3555984
  35.0762215  66.5836792  71.9708633  35.2977180  66.3500671  70.4918976
  83.5547256   9.5199490  46.1741371  83.2888718   9.0331659  46.9542656
  82.7895279   9.4885864  45.5999260  15.4795465  58.0119667  73.4832458
  15.7749186  58.4483032  74.2823639  15.7432985  58.6016502  72.7768860
  49.9876289  26.6747417  20.6445827  50.7563248  27.0676594  21.0580521
  49.6775436  26.0293846  21.2798710  57.3985023  54.9321747  25.0955143
  57.8919525  55.4858932  24.4904251  56.5086441  54.9257927  24.7428875
   8.2847757  66.1408310  88.2354889   8.7897091  65.3590851  88.0115433
   8.5136023  66.7762222  87.5571442  37.9554558  59.1244965  50.5557251
  38.3822861  59.9224052  50.2436523  38.2903404  58.4341812  49.9834023
  49.8212051  44.0344048  78.2386703  49.6208000  43.4263306  77.5271149
  49.9623260  44.8748817  77.8028793  62.8130417  62.2148628  44.8532486
  63.7464600  62.4189568  44.7957535  62.6192932  61.7485771  44.0400620
  27.6704426  12.4235420   4.5416446  26.7992954  12.2793036   4.9111447
  27.9105167  11.5801134   4.1579456  60.7474976  18.2185249  52.1061401
  61.0003471  17.3869553  51.7051506  60.0471764  18.5517941  51.5451469
  70.7192459  58.6021614  42.0455246  71.6143265  58.3212929  42.2357101
  70.2461929  57.7895470  41.8663406  38.7851524  55.8759460  41.2351532
  39.6262550  55.6237984  40.8540993  38.4296761  55.0615616  41.5910339
  55.5240784  15.7782440   9.6537848  55.1105385  15.9079447   8.8003254
  55.2057800  14.9244251   9.9468880   5.0094151  60.8700867  10.7424994
   5.7939348  60.3765335  10.9815912   4.7312822  61.2874413  11.5577841
  51.2840462   5.3331590  10.9699268  51.8067284   5.0291214  11.7119484
  51.1434593   6.2642999  11.1415176   2.7886071  23.4494381  64.5135727
   1.8905356  23.7219257  64.3252869   2.8884130  22.6173935  64.0510025
  23.2537346   5.6960921  86.5685349  23.9705601   5.7147985  85.9344635
  23.2330780   6.5810065  86.9328613  55.5325165  31.0214500  78.8072205
  54.9904099  30.5671749  79.4521942  56.3858528  31.1103878  79.2316513
  23.9434395  40.1577950   0.3757028  24.0552597  39.9722404   1.3080641
  23.3800182  39.4526405   0.0570439  75.1769257   9.3055153  21.9898243
  76.1158829   9.4625483  21.8901920  75.1089554   8.3685799  22.1735725
  49.9586639  67.5424728  31.2211380  50.1913376  68.4103088  30.8910656
  49.9365883  67.6460419  32.1724625  49.9048271  21.8115292   2.1599984
  50.3384628  22.5606861   2.5686021  49.2781258  22.2008705   1.5501720
  36.7751579  59.5117302  60.9989395  36.4374847  58.6341782  60.8197517
  37.5246735  59.6046524  60.4108696  59.4721107  15.7036200   8.2537117
  59.3174248  16.6320343   8.4279242  58.7201729  15.4299679   7.7284174
  84.2059326  62.5887070  82.5283279  84.8272476  63.1667976  82.9710693
  83.4845505  63.1634560  82.2723999  34.8587799  43.6725616  38.6268311
  35.6786613  43.4486923  38.1864777  34.9448166  44.6029587  38.8346519
  56.5526123  38.9565811  39.3868599  56.6737137  38.1344757  39.8619461
  55.7951660  39.3657074  39.8053360   5.1011782   3.3362873  20.4496555
   4.5051341   3.2917395  19.7020073   4.5453362   3.5974457  21.1838684
  58.8282547  44.4205055  53.1846390  59.3991318  43.9513550  52.5761757
  58.0248680  43.9006615  53.2084808  78.3608093   5.5688415  81.1245499
  78.4152222   5.3069453  80.2054825  78.3221054   6.5249243  81.0992661
  23.5429058  16.2885647  31.3056297  24.4038639  15.9862280  31.0165348
  22.9405212  15.5995255  31.0252876  62.0213051  65.0425034  79.9619675
  62.6017990  65.4920959  80.5760651  62.4889984  64.2387848  79.7349548
  25.7250042  38.2613144  57.4201660  25.1929646  38.2626038  56.6244507
  25.9300976  37.3383751  57.5696602  82.7330704  69.7944031  58.1263885
  82.5332489  70.7305069  58.1232185  82.2178421  69.4419632  58.8520355
  13.5543146  17.2459888   0.7768689  13.7112370  16.3943806   1.1847531
  13.7978296  17.1207714  -0.1403293  55.8147469   6.4965286  10.2824087
  55.5319061   5.7630830  10.8285694  55.5163040   6.2685685   9.4019556
   5.7030096  56.6457481   9.0700874   6.5062160  57.1215820   9.2814465
   5.2495480  56.5570259   9.9083796   6.1114478  60.8233490  36.8780556
   5.8348641  59.9081879  36.8309822   5.4332061  61.2519951  37.4000549
  45.1054649  34.3168602   4.2875390  44.1794052  34.2691765   4.5249553
  45.2355003  33.5866699   3.6824381  86.3770676  66.4813538  30.9123535
  86.8059769  66.8137283  31.7008896  85.7256546  65.8600845  31.2378082
  45.0734406  16.7378063  81.4310074  44.3317680  16.6140728  80.8386917
  45.8448792  16.6226120  80.8761749  54.1758919   7.5416183  20.1957779
  55.0602036   7.8830290  20.0628624  53.8913994   7.9292178  21.0234623
  33.1610336  71.7394791  65.2469864  33.3742447  71.0104752  65.8295059
  32.2198906  71.8707199  65.3621292  61.7285004  23.5083923  81.1810074
  62.4157448  23.1049805  81.7112732  61.2347221  24.0475845  81.7988129
  72.5025253  68.7228241  56.8140259  72.0621109  69.5471954  57.0206261
  71.9019623  68.0457611  57.1257019  22.8490524  10.3015375   8.5635281
  23.8033028  10.2550669   8.5045614  22.6148262  11.0753927   8.0511627
  70.9491196  31.4523869  42.9163132  70.2240906  32.0770073  42.8958282
  70.9927826  31.1659527  43.8286057   6.3956828  47.5322151  55.1069336
   6.9048753  47.4956398  54.2972336   5.5807233  47.9681587  54.8578873
  53.9134026  52.3336411  17.4667187  53.9707451  53.2837944  17.3659534
  53.3777161  52.2077446  18.2499332  10.8003931  40.4419479  25.1206608
  10.1935053  40.8144073  24.4809780  10.2936535  40.3928642  25.9312382
  48.5781174  17.0861435  74.5979996  48.6039200  17.0883522  73.6411514
  48.7972260  16.1867180  74.8414383  35.9848824  44.3533249  69.8448257
  35.3776131  43.8121262  69.3402863  35.4242249  44.8518600  70.4392700
  70.5053177  44.9959488  79.2916183  69.8120270  44.7051468  79.8840790
  71.3062897  44.9353485  79.8122025   4.5218816  49.3189163  36.7082176
   5.4549680  49.1531143  36.5737152   4.2784958  49.9099579  35.9957123
  76.0672531  31.5861092  84.2593689  76.6557541  31.6019936  83.5046158
  76.1808548  32.4433823  84.6697464  16.9654655  35.4354210  67.0811005
  16.4489422  36.2262306  66.9260101  16.5766983  34.7783546  66.5037308
  70.8212051  35.4401817  57.1504593  71.4598312  34.7287292  57.1976242
  70.2602692  35.3095970  57.9150047  50.8011055   3.6654432  31.5693569
  50.1088867   3.5462441  30.9190826  50.5790215   3.0529382  32.2706032
  33.1064224  17.9905815  81.1771164  33.2577477  17.0676022  81.3806992
  32.2858009  18.2025509  81.6219559  61.1373825   2.6096473  37.2901154
  61.3677406   3.1849151  36.5605736  60.6078300   3.1576862  37.8693047
  60.5304718  36.4114494  80.9049454  61.2367325  36.8884811  80.4692078
  60.9316788  35.5864792  81.1782303  50.3697777  68.4213181  68.6498642
  49.9803619  68.1499100  67.8186417  49.7846718  69.1047668  68.9766312
  51.1909714  28.5334377  71.6551895  50.2614250  28.5326519  71.8836212
  51.6339340  28.8166504  72.4550705  34.0275536  50.1122169  84.8226547
  33.9570503  51.0138474  85.1362228  33.4906464  49.6043968  85.4309998
  45.3698235  22.6230564  28.3348618  45.3328590  22.5707512  27.3798065
  44.6732712  22.0385590  28.6338806  20.9881325  49.6605949  38.3350525
  20.4043808  48.9277840  38.5311470  21.8633900  49.2732544  38.3239479
  69.5735931  17.4056263  47.8323326  69.8091660  17.1942787  48.7356987
  68.6630325  17.1222706  47.7497063  19.0084305  37.4090538  41.3360214
  18.8204136  36.7857895  42.0377464  18.7038670  36.9728546  40.5402794
  20.2586861   9.0982542  71.3855972  19.7041302   9.6202650  71.9654312
  20.8469639   9.7349367  70.9796448  44.4746132  23.1561127  66.5506363
  43.5527344  22.9240379  66.4387741  44.9334946  22.6409931  65.8870773
   8.4373150  68.3722916  27.5842266   7.5919924  68.0860519  27.9302444
   8.9797783  68.5099411  28.3607693  86.1521912  17.3528500  47.8809891
  86.3891449  17.0588455  48.7605629  86.9886932  17.4387093  47.4236908
  46.5814552  62.2038193  21.7149906  45.8578224  62.8116531  21.8670845
  46.3097801  61.6942253  20.9516182  49.2083054  46.2577400  81.5262680
  49.3054047  45.3064041  81.5683060  49.6425743  46.5779877  82.3168869
  40.2490692  44.9452896  41.2084045  39.4396477  44.4410553  41.2909813
  39.9766159  45.8558693  41.3217239  55.1123276  70.6279602  29.6722927
  55.1512909  69.6738205  29.7380371  54.4913559  70.7940063  28.9630280
  18.4147243  61.5321312  50.5648232  18.6776409  60.6230431  50.7085800
  18.5638752  61.6797714  49.6309128  58.3966255  34.8374023  63.6257591
  58.5676804  35.7500572  63.8582039  58.7952690  34.7314758  62.7619934
  32.3035927   1.6775635  39.0966339  32.2801437   2.4467199  39.6659164
  32.4488564   2.0329099  38.2197876   7.3938689  49.1246185  27.3061981
   7.3353372  48.3282661  27.8340530   7.0798755  49.8192825  27.8850651
  30.2558365  71.2154007  35.5742035  30.3446712  71.4052811  36.5081673
  31.1402264  71.3201294  35.2233200  44.5461044   9.9547739  83.7297058
  44.8661003  10.8516665  83.6326675  44.1320763   9.7560081  82.8898849
  33.2690926  52.3062439  75.2312622  33.8194046  52.0828972  75.9819336
  33.8895912  52.5015526  74.5290756  78.2615433  48.3866653  69.8179626
  77.6540070  49.1113205  69.6696014  78.1603165  47.8276978  69.0475464
  15.4788113  56.4021873  80.7460861  15.3255463  57.1161461  80.1272125
  15.5403557  56.8332062  81.5985336  15.5982647  62.1568604  87.4738846
  14.7753649  61.7842026  87.7904129  15.4168215  63.0918732  87.3787003
  56.4037628   5.1368842  21.9954872  55.5885582   5.3755202  22.4367638
  57.0755653   5.2195902  22.6722965  32.4791451  21.5071850   6.2231979
  32.7620239  21.7345676   5.3374739  33.2933578  21.4077206   6.7165470
  85.3441467   5.5841203  45.8315392  86.2379303   5.6981382  46.1546173
  85.4408264   5.0504556  45.0428123  65.2674255  29.2167683  71.0873718
  65.8960419  29.2226257  71.8092041  64.6688232  29.9370251  71.2852173
  31.3495483  44.0883484  70.2627335  31.1134377  44.9967880  70.4504166
  30.5776367  43.7250252  69.8287048  73.2638321  66.9945755  59.3829269
  73.5495987  66.3804932  60.0592995  72.6805954  67.6002731  59.8403053
  57.3903580  46.9135170  73.2202606  57.9586296  47.0391922  72.4603195
  56.8334694  46.1720581  72.9828949  78.4879684   1.5839221  28.5742321
  78.8731003   2.3386827  28.1289845  79.1025848   0.8689896  28.4088478
  51.0802765  31.0297699  33.3217735  50.2449493  31.4817867  33.4406967
  51.3830872  30.8480949  34.2114525  82.7772598  47.7519417  20.3749218
  82.0501404  47.2302933  20.7146549  82.6036453  48.6388474  20.6903439
  48.5326500  23.6429291  53.2714272  48.6249733  24.5950928  53.2383881
  48.7593803  23.4114189  54.1721077  36.6710587  64.6037674   5.5216908
  37.1779060  65.3963165   5.6983700  37.2717743  63.8858032   5.7214341
  44.1117935  30.2597389  12.2280941  44.0566864  29.9128609  11.3376608
  44.0044098  31.2051735  12.1239071  64.3284302  33.0772820  74.6859436
  65.0762253  33.4830055  74.2472763  64.4200516  33.3350830  75.6032028
  40.5908051  44.9907494  27.9765415  40.9750671  45.8060074  28.2989235
  40.5708809  45.0951004  27.0252552  42.2917023  63.7090988  73.3076859
  42.2039871  62.7994308  73.5923538  41.5023956  64.1399002  73.6357651
  46.8757706  58.9714775  87.0215836  46.1549492  59.6004410  87.0540848
  47.5983238  59.4557037  86.6219864  59.1697693  61.3514633  64.5047531
  59.2639694  61.2809944  63.5548134  59.6943359  62.1163673  64.7413712
  10.7964249  35.8312073  76.2189636  11.0148001  35.0840797  76.7760544
  11.0578852  35.5586700  75.3394241   6.7297230   9.0951242  16.9752388
   6.7901478   8.3077326  17.5161591   5.8473129   9.0646191  16.6055717
   0.2761451  11.0943851  52.9847717   1.1390759  10.8286886  53.3025551
  -0.0305394  10.3470488  52.4712868  19.1978283  49.0181503  85.6292725
  19.5603962  48.1325035  85.6092072  19.9244461  49.5678291  85.9227142
  23.2994270  51.0875816  22.9678497  22.7508888  51.5399551  22.3269920
  24.1706581  51.4649429  22.8462372  86.1946259  62.3142128  33.3350258
  86.1212463  62.5972099  32.4235649  86.9132156  61.6818771  33.3323708
  55.2764511   0.1798127   8.7018461  55.3041763   0.7201964   9.4914331
  56.1449356   0.2803816   8.3121653  12.6756134  71.2699814  84.8872604
  13.5833578  71.4638443  84.6534882  12.2092152  72.0926361  84.7391434
  45.4508553  55.4711494  80.3551102  44.9017334  54.6903648  80.2839127
  45.4342613  55.8563461  79.4789963  82.6316223  10.1912289  69.7089539
  82.6146545  10.3542700  70.6520157  83.4811630  10.5270710  69.4230728
  24.1942291  67.2355881  56.4485970  23.5893307  66.5407791  56.7085533
  24.7378292  67.3819351  57.2227478  16.0120010  44.9540138  53.0054321
  16.4368114  45.7917900  52.8213196  15.1882124  45.1916084  53.4310493
  71.3661804  47.7023392  49.0405502  70.8442688  46.9425774  49.2986221
  71.0918503  47.8874512  48.1423798  82.2204819  58.7527618  72.5068817
  82.2327576  59.0897255  73.4027252  83.1350327  58.5434036  72.3171844
  18.2055149  55.8593369  29.4544106  18.4878235  56.3567581  28.6868763
  18.7364769  55.0632019  29.4324455  60.7221642  57.2358131  33.9673004
  59.9464455  56.9637032  33.4769478  61.4408989  57.1604919  33.3396225
  62.1908035  51.5790253  37.5865173  61.7928352  51.0992546  38.3129311
  63.1321869  51.5256157  37.7513733   3.7632921   5.5330105  64.3572845
   4.2806702   5.1453009  63.6514320   2.9963286   5.9005270  63.9180489
  75.3063202  11.6804762  26.2222424  76.0848923  11.8905725  26.7379150
  74.5878601  11.7000551  26.8544292  48.6346664  39.8970757  48.2065697
  48.2481918  39.3964539  48.9250755  49.1125908  39.2469749  47.6916008
  40.9137077  20.7310944  22.0618839  41.2212029  21.6375370  22.0681572
  41.6947784  20.2118816  22.2531338  83.2411499  14.7495241  85.5224075
  82.9421005  14.6808033  84.6157303  84.0786896  15.2092733  85.4641724
  35.8129234   6.3370433   0.8279735  35.7533646   6.6945076  -0.0579743
  35.4300804   5.4624095   0.7595860   9.8358250  70.2267761  65.0987549
  10.3045206  70.9060669  64.6138611  10.1112480  70.3478851  66.0074387
   5.4664292  59.5312195  57.2516022   4.9423075  59.3722267  56.4665871
   5.4493852  60.4818230  57.3624992  60.0052185  36.2234764  14.7458658
  60.2432175  35.3610725  15.0862284  59.3374443  36.0438194  14.0840244
  39.3639984  34.8374748   0.0370097  39.6890144  35.6597290   0.4037498
  39.4882698  34.1970978   0.7375112  68.2117844  66.0426025  20.3471928
  68.5100708  66.7416077  20.9291286  68.6136703  66.2462311  19.5026455
  31.9970741  35.6025352  88.6369476  32.6491356  35.3213272  87.9950943
  31.4888821  36.2749481  88.1832657  34.4946022  56.1098289  88.2487793
  34.2087669  56.9720573  87.9469604  34.6932297  56.2346268  89.1767883
  32.7681236  52.6590462   7.1502976  32.6646690  53.6102371   7.1225286
  32.0669174  52.3254204   6.5906258  38.3563538  63.8315926  20.0361481
  37.4451561  64.0880127  19.8940315  38.6979675  64.4879913  20.6433353
  55.8355904  23.4865093  68.9011765  56.7103539  23.1268654  68.7539597
  55.3336906  22.7555752  69.2618179  50.4301643  53.3359680  76.9664764
  51.3385811  53.2905083  76.6682434  50.2110672  52.4352570  77.2051163
   4.2871170   9.0859489  15.5268431   4.8630481   8.9202013  14.7804766
   3.4101470   8.8804102  15.2029457  16.9015331  54.1781578  50.8153191
  17.7553101  54.6011505  50.7238007  16.9348259  53.4378738  50.2094307
  65.0003510  59.5889282  20.7213039  64.6550903  59.1264153  19.9576912
  65.9469147  59.4542885  20.6750965  70.1164703  44.0386391  40.6958656
  70.9579086  43.6741753  40.4213257  69.5137634  43.2954559  40.6703033
  49.6837158  21.1565418  40.4920692  49.7072983  22.0442924  40.1348915
  50.6018791  20.9381886  40.6518517  47.3181419  50.0174980  46.4199829
  47.8990402  49.8077812  47.1512909  47.7956696  49.7255821  45.6434631
  30.3247585  24.9556541  87.3510132  30.5107002  25.8170261  87.7247696
  31.0871296  24.4248142  87.5817261  52.7197380  47.5970421   1.0574797
  52.6573868  48.5001907   1.3683951  52.3339119  47.6180420   0.1817341
  67.9202042  47.4283714  34.7869644  67.2982178  47.3973808  34.0600510
  68.4658737  48.1929474  34.6028519  63.3240128  30.9690552  71.9894257
  62.8732414  30.7441101  71.1755295  63.2494164  31.9214706  72.0492020
  42.7750053  25.6635094  52.1151543  42.9314346  25.4565926  51.1937675
  41.8238297  25.7456875  52.1840363  46.9884262  18.9759254  27.9341049
  47.9229698  18.9268379  27.7329788  46.7576294  18.0912457  28.2174911
  76.3684692   8.5268650   8.2734900  77.1244125   8.9005709   8.7263975
  76.7476578   7.9846559   7.5817842  52.9718323  28.0887642  35.4199486
  52.4849052  27.6237164  34.7396088  52.3386917  28.7043552  35.7892838
  17.0069370  60.4939728   5.0289063  16.8153992  60.3644142   5.9577546
  17.9165440  60.2126427   4.9304123  14.4916983  61.5337791  44.7932930
  14.0398779  61.6012001  45.6344490  14.2185192  60.6863441  44.4419250
  38.0779076  13.9035168  19.2814693  38.8050308  13.3089428  19.4658775
  38.4986153  14.7206593  19.0140476  50.9839096  59.5524864  23.9869633
  51.7417374  59.5366592  23.4024315  50.7475243  58.6315575  24.0976429
  33.1593094  61.2815933  46.2912903  33.1778831  62.2153702  46.0816498
  32.5067863  60.9150772  45.6945419  15.6324778  58.9430962  48.7903595
  14.8520622  58.7510147  49.3102531  15.9576769  59.7712097  49.1434937
  50.5994911  51.3420372  60.7943306  50.5969543  50.6260300  61.4295921
  51.5258522  51.5482521  60.6695633  72.6487122  26.7124405  75.5736389
  72.8669815  26.5931435  74.6493225  73.0550308  25.9659462  76.0139618
  61.0926323  61.0483589  80.2932281  61.5286064  61.6438713  79.6837006
  61.7789116  60.4388008  80.5646820  29.8335133  19.4756222  78.1449509
  28.8844166  19.3747845  78.0722809  30.1544456  18.5935059  78.3323059
  42.7922516  53.4065208  25.4029961  42.7257195  53.5230637  26.3507423
  43.5387383  53.9481812  25.1468887   6.0481772  58.0354271  47.4959717
   6.4813547  57.2532043  47.1543312   5.5874906  58.4028511  46.7416496
  16.4185944  26.1100616  32.4426613  17.3709106  26.0611362  32.5259285
  16.1251774  26.4923172  33.2697144  76.5827484  71.3703690  83.5265732
  76.0955963  70.6801987  83.0764847  77.3077316  71.5757675  82.9362793
  13.5033073  69.4403000  78.8858490  13.5330286  68.8271408  79.6202774
  13.0176153  68.9749527  78.2048340  31.4686031  28.3425751   3.3319278
  32.2140045  27.8616657   2.9722962  31.0047703  28.6750450   2.5634515
  79.8098297  51.8461494   5.8029056  80.6411362  52.2918396   5.6400175
  79.5018234  52.2096634   6.6331005  50.5489273  18.0211792  21.0112228
  51.1335144  17.6767883  20.3360310  50.9458008  17.7425518  21.8365040
  79.8476562  36.8932228   1.3931462  80.2576370  36.4155312   2.1142240
  78.9310532  36.9810982   1.6545751  62.4470940   5.4194922   5.7865734
  62.8124352   6.2752514   5.5619936  62.3430519   5.4456253   6.7377429
  26.0049038   2.1253481  40.8106766  25.7011204   2.8949540  40.3293724
  26.7598534   1.8134019  40.3117065  66.1722260  16.5357761  69.9242554
  65.3325348  16.6118202  70.3774261  66.4060822  17.4365978  69.7005081
  78.2896194  28.4102364  76.2022476  79.1936874  28.5514679  76.4832230
  77.9098740  29.2881756  76.1668625  42.3410835  62.9588127  49.0470009
  42.3376617  62.9533958  50.0041771  41.4394798  62.7494354  48.8030701
  66.7101212  68.5424881  75.3110657  66.6501770  69.4475327  75.0052338
  66.1043091  68.0591965  74.7492294  59.3475456  70.0192566  72.1910324
  58.5485725  70.0351486  72.7179337  59.2106285  70.6958160  71.5278931
  14.7942724  25.0963020  79.6646576  15.1395845  25.5630970  80.4256363
  13.8959064  25.4145451  79.5758286  14.2839546   7.2982659   0.8014271
  14.4939184   6.8270855   1.6077371  14.6687441   8.1661015   0.9240284
  47.0524750  52.2400665  29.4076271  47.8146591  51.9954567  28.8827705
  46.9981651  51.5623512  30.0814133  68.3457184  17.4801083  53.3865204
  69.2764359  17.7030983  53.4030418  68.2271729  17.0078106  52.5624390
  83.4116211  68.7485962  71.1603775  83.3551025  67.7964020  71.2402191
  82.5025558  69.0362625  71.0761948  39.8663673  67.2658539  30.9296436
  38.9537392  67.4091492  31.1802616  39.9780960  66.3158493  30.9648819
  85.1892166  18.6942272  85.1816177  85.5649872  18.9217510  84.3311691
  85.5890579  17.8531437  85.4028473   1.7046409  65.6775894  66.1343613
   2.3502507  64.9807739  66.2521591   2.1806223  66.4822998  66.3395691
  63.1481590  31.0743694  22.8539047  62.2063217  31.2426033  22.8834209
  63.2184677  30.1360664  22.6781902  42.1310425  21.5476761   5.1072793
  42.3653564  21.2079220   5.9709315  41.3510513  21.0518036   4.8583694
  75.3068008  41.1211700   9.9544888  76.0268021  41.7059479   9.7181463
  74.7671432  41.0746002   9.1652861  34.7607269  70.7652740   6.6129956
  35.4108429  70.5065536   5.9598150  35.2722702  71.1738434   7.3112988
  35.4729424  33.3655701  68.2407608  35.1483345  34.2652626  68.2031403
  34.7590904  32.8381996  67.8822556  69.5632553  71.3719101  88.7393494
  68.6275482  71.1932907  88.8330002  69.9521637  71.0430603  89.5498047
  70.3000183  50.1555328  79.8090897  70.0589218  49.3122520  79.4257050
  71.0776978  49.9663696  80.3341217  14.4458494  30.7393265  88.5078201
  13.9652252  31.2074261  89.1905441  14.8852654  30.0258560  88.9705353
  57.7977562  55.5610275  36.6383934  58.6706810  55.3987732  36.2807579
  57.5974159  56.4612350  36.3820343  67.8986435  44.0709190  76.0011673
  67.5423279  43.6667213  76.7923050  68.6993103  43.5784874  75.8203964
  22.7284851  54.8634605  28.8589420  22.7707195  55.7394791  28.4754848
  23.1327953  54.9596977  29.7212086  40.6271477  64.5136490  32.0860176
  40.3075676  64.4434814  32.9855576  41.5710716  64.6441040  32.1766777
  61.3553925  53.5002670  59.5613937  60.5435028  53.0283813  59.3759460
  61.9628868  52.8235283  59.8600655  27.0804100  46.1003647  72.7865067
  26.1765633  46.3190880  73.0133362  27.5588360  46.1727180  73.6124039
  56.1482887  42.7675552  70.2322617  55.4556160  42.1169777  70.3470612
  56.9501152  42.2514915  70.1486588  39.7930756   5.1372032  12.4265518
  38.8804283   4.9294477  12.2261829  39.7499619   5.9596620  12.9143372
  25.3447018   2.7813566  10.9428120  25.0708027   3.6736462  10.7306070
  24.8850555   2.5770016  11.7571812  37.3517914  25.4150524  45.3961029
  36.9833336  24.5506744  45.2135582  36.6597404  26.0277996  45.1474304
  36.1149826  55.5679245  58.7984619  36.7577744  55.2409706  58.1690559
  35.5573120  56.1551323  58.2881470  32.3704910   3.2990549  67.1439438
  32.3658447   4.2143555  67.4240112  32.5606689   2.8054478  67.9417038
  11.3820448   0.3848264  66.9632492  12.1197224   0.2367125  67.5549622
  10.6758909   0.6904055  67.5326385  20.6419106   2.8036482  71.1397781
  21.0241127   3.4178491  71.7666016  19.9618893   2.3475718  71.6355515
  43.3223000  16.1608925  27.9793358  43.0290451  15.4412994  28.5382805
  42.7834702  16.0872364  27.1916389  60.3206139  52.5374641  52.7371254
  60.1470108  52.9458466  51.8889999  59.8656425  51.6963310  52.6955490
  56.9585075  26.9942188  76.7853622  56.7204971  27.4176884  77.6101379
  56.1393814  26.9538002  76.2917709  81.9527664  16.1886539  68.8547974
  82.8976059  16.3149033  68.9418182  81.5743713  16.7237606  69.5524368
   0.7349555  29.8381863   0.2598755   1.1531075  29.0021305   0.4657649
   0.9430707  29.9894447  -0.6621014  69.4537048  39.7489052  51.3379326
  68.7938843  39.8082809  52.0288315  69.6410217  38.8130188  51.2654190
  58.1852226  60.9659195  76.7766418  57.8935585  60.1559029  76.3582687
  59.0458908  60.7527809  77.1372757  55.1309128  45.5473938  62.7111702
  54.9183807  45.1957817  61.8466301  55.1578941  46.4957275  62.5840302
  23.2501831   8.5419903  87.1259689  23.6339283   8.7572842  87.9760361
  23.8066196   8.9928656  86.4908905  24.4520493  24.5465126  13.4495440
  25.1450233  25.0162792  13.9135876  23.8527908  25.2326717  13.1557655
  58.5490036  11.4007463  31.6368828  58.6470833  12.3516645  31.6855278
  59.2340698  11.0595846  32.2117958  67.9366302  16.9161205  56.1349335
  68.8696136  17.0674839  56.2861710  67.8082733  17.1185875  55.2082405
  66.8256683  65.4863358  85.6360474  66.4261627  65.8943710  84.8678513
  67.6048431  65.0466690  85.2957382  34.5779457  52.8731384  29.8278656
  34.2958679  52.9788170  28.9192982  33.9880829  52.2098885  30.1861858
  63.2295303  20.6482162  73.8197327  62.5113945  20.5132561  74.4380341
  63.9257240  20.0698872  74.1313095  66.4614334   5.0915074  44.5754814
  67.3691940   5.3694153  44.6978340  66.2856598   4.5137253  45.3181114
  74.3136673  24.5846043  33.0976830  75.1552887  24.9396935  32.8116493
  74.1680374  23.8273354  32.5306129  76.7251968   5.5812907  49.3970108
  77.2149811   5.9424977  48.6581802  76.8086166   6.2412686  50.0852699
   4.5840707  63.5138588  88.6450424   3.8417103  63.9622345  89.0501328
   5.2986641  63.6180611  89.2733231  81.7189941  35.8717995  58.3091698
  81.2488327  36.5684280  58.7673073  82.2404938  35.4468422  58.9901123
  61.6319923   2.1267929  57.2854462  62.5583611   2.2343967  57.0698204
  61.6048279   1.3502705  57.8444672  78.5591125  50.6853333  47.9461899
  78.3953018  50.7097206  47.0034256  78.2378082  49.8272133  48.2230034
  47.2624512  71.8289185  49.8161926  46.4620056  71.3613129  50.0546608
  47.4272499  71.5741272  48.9083595  30.0201130  49.6880531   2.8113368
  29.9923248  48.8871193   3.3347495  29.6678429  49.4298935   1.9595796
  85.6659088  67.3296356  70.2053070  85.8177338  67.2150269  69.2671967
  85.4763412  68.2625580  70.3050385   5.3609171   1.0392177  22.9117641
   5.1643672   0.4583820  23.6467667   5.3026786   1.9205273  23.2807274
  24.5547047  67.2534714  12.9150953  24.5653763  66.7546310  13.7319670
  24.9443474  66.6640091  12.2693825  16.8429127  56.1777077  85.1398621
  16.2227001  56.7764473  84.7238388  17.6001053  56.1722946  84.5543213
  43.7647209  24.9518528  27.1196079  44.0394440  24.8566875  28.0315838
  44.1163712  25.8005829  26.8508511  47.5906830  54.1020699  19.4053440
  47.3178406  54.5493164  20.2064419  46.8408012  53.5563774  19.1684208
  85.2836533  22.2409973  12.1061726  85.2804489  22.5727520  11.2083082
  85.8621521  22.8384018  12.5801811  72.2974243  69.2807388  14.5028524
  72.8651733  69.0838852  15.2479324  72.4192886  70.2177353  14.3498449
  80.0885696  16.8263073  27.2676945  79.9307480  17.5488434  27.8753681
  79.5953598  17.0621014  26.4819622  17.2668819  30.3081760  70.5721893
  17.8546219  30.0855389  69.8502274  16.7246494  29.5280514  70.6888962
  85.7153702  35.5954323  48.7233582  86.3604431  35.2826309  48.0891151
  85.2215424  34.8129425  48.9684792  57.9542313  13.2896156  54.2410240
  57.5742455  13.5287600  55.0863953  57.4346085  12.5410309  53.9480286
  83.9525223  54.6443062  71.5042191  84.8785095  54.5997353  71.7425003
  83.8137207  55.5572586  71.2522507  18.6830368  59.3115158  63.2340546
  18.5819569  58.8122597  64.0444565  17.9295673  59.0579185  62.7009468
  38.4429588  65.5925064   0.4279633  37.7721634  65.5231857   1.1072706
  38.2792892  64.8452454  -0.1474046  27.5583725   2.2912278   0.6646955
  28.5054798   2.2627785   0.8003772  27.2765388   3.0903726   1.1098583
  85.5372238  43.9540367   3.3961957  86.4010620  44.3570595   3.4832909
  85.0141144  44.3566170   4.0893884  75.0202560  39.4544029  88.9508972
  74.8453293  40.0792122  89.6546326  75.9133224  39.6538506  88.6700287
  51.6024666  26.9401188  61.2808571  52.2565308  26.3143082  60.9697380
  52.0945930  27.5446243  61.8363914  80.9448395   7.3098998  27.7193737
  81.2109299   7.3661084  26.8016205  80.0154953   7.0831494  27.6858444
  56.2052307  13.4044876  68.1076813  57.0393372  13.7429409  68.4331741
  55.5608368  14.0611506  68.3718414  47.2462883  58.1329765  54.2904358
  47.6787949  58.7554283  53.7058601  47.8127060  57.3614197  54.2801399
  15.5494242  67.9585342  42.4875908  16.2800617  68.3837585  42.0386009
  14.9642773  67.6806946  41.7828636  52.6812515  34.9097748  63.9215508
  53.2243271  35.2424011  64.6361542  52.3876648  34.0503387  64.2238846
  86.4852676  62.5453720  27.8499660  85.9191971  62.8338509  27.1340237
  85.8796387  62.2777443  28.5412064  73.1536026  70.4754181  83.6625900
  73.7940826  70.1192627  84.2783585  73.2384186  69.9253006  82.8838654
  56.7618904  37.1616058  77.6695557  56.2261124  37.7478180  78.2039032
  56.7198601  37.5346947  76.7890625  60.4618721  20.6999264  30.3351631
  60.3752251  20.3231182  31.2108002  59.5957451  21.0587616  30.1420498
  35.1738586  69.5423737  47.3928909  34.5843964  68.8246460  47.1613235
  35.1048622  69.6112442  48.3451118  41.9748192  61.0720634   4.3760877
  41.1563606  60.6755791   4.0774956  42.1663551  61.7460403   3.7239394
  85.3982773  51.6343956  61.5774956  85.0259552  52.4312820  61.1998978
  84.6701965  51.0131645  61.5915146  16.0760136  40.0317154   3.3153300
  15.4804268  40.5408440   3.8651450  16.4789753  40.6784286   2.7360060
  81.8192444  27.5903301  34.0855942  81.0813370  27.2412853  34.5854759
  82.5331497  27.6474075  34.7206650  79.7536392  59.3644257  68.4356384
  80.1411362  59.6148949  69.2742920  79.1565552  60.0819702  68.2238541
  51.1201401  16.9793930  47.7925797  50.6157722  17.7174683  47.4503937
  50.5594597  16.2175961  47.6458321   8.9570417  44.8502884  18.9367237
   8.1177034  44.9636955  19.3826847   9.5900154  45.2942581  19.5010529
  58.8896980  24.2353344  36.6075706  58.9165916  24.3759594  35.6611404
  59.7840691  24.4091415  36.9010468  24.6059418  37.9103088  54.2413788
  24.6546955  36.9707947  54.0648346  24.9539738  38.3211060  53.4499550
  48.8256302   5.8135405  47.3811569  47.8827629   5.9323716  47.4956665
  48.9029465   5.0536308  46.8042755  66.3666153  50.4368973  64.2146149
  66.7047043  49.6171875  64.5751724  65.7700729  50.7662315  64.8868561
  52.3383331  42.3378792  16.7982693  51.6157799  42.0974236  17.3782101
  52.6589699  41.5032883  16.4563923  37.0018806  51.1701660  31.0826054
  37.0381851  51.9441376  30.5205708  36.8943863  50.4380608  30.4754009
  74.3110275  70.6081772  27.5534477  73.6771622  70.2426376  26.9363365
  74.6409836  71.3951721  27.1198692  33.0180817  34.3557434   1.7344203
  33.6523361  34.7091751   1.1106904  32.2472839  34.9144669   1.6347796
   1.8123430  15.7639713  52.5216522   2.5324693  15.3533401  52.0430794
   1.6780072  15.1994734  53.2829170  52.0692749  38.3643341  54.7903290
  51.2163315  38.1959648  55.1907845  51.8941727  39.0293007  54.1244545
  49.3504028  38.0971336  55.4910622  48.6569366  37.6271782  55.0279427
  48.8863792  38.7329521  56.0357170  75.5488663  59.1201439  36.1514626
  75.5836334  59.7912025  35.4697685  75.1104050  58.3781586  35.7349968
  18.8007660  62.6516991  53.0717506  18.5379314  62.3170929  52.2143211
  18.7684746  61.8875084  53.6472511   2.4318516  35.5542412  31.8463573
   1.6283283  35.9883041  31.5597038   2.2937129  35.3859062  32.7784615
  31.5826378  67.6211624  33.2169189  32.3905067  67.2007446  33.5115891
  31.3376465  67.1412125  32.4258080  64.7935715  29.1198463  77.1466064
  65.0203629  29.5232105  76.3087006  64.2660294  28.3569393  76.9101715
  82.9395065  70.0890884   3.6944969  83.0016632  69.6428375   2.8499682
  82.9931107  69.3857498   4.3415513  56.9765472  54.2734871   1.5979084
  56.4422836  55.0168800   1.8774955  57.3864365  53.9569168   2.4028955
  23.5543938   7.4474955   4.6191182  23.0848331   6.8976984   3.9918473
  23.0549641   8.2637243   4.6430502  85.1515579  59.0398636  72.2183990
  85.3329544  58.1103096  72.0796432  85.8651810  59.3418808  72.7803268
   6.4612350  30.1821175  65.1484985   7.0774617  29.4752541  65.3404388
   5.6986084  29.7402382  64.7751694  54.5327110  31.3369770  85.1417770
  55.4664803  31.1540413  85.0376663  54.4550209  31.6890202  86.0284882
  73.2518921  34.9264412  15.9799433  74.0294952  34.5415764  16.3842125
  73.4067764  35.8704262  16.0136070  31.7092133  28.8722286  16.3692513
  32.0850105  28.0418549  16.0768719  31.0827312  28.6252728  17.0495205
  17.1542645  47.5183220  15.5096493  16.6260109  46.9338303  16.0532932
  16.5491180  47.8327293  14.8379517   5.4365988  60.8912010  76.5380630
   5.8658843  61.7443352  76.6021500   5.1780052  60.6851120  77.4363327
  21.4913216  50.6087494  65.0421753  21.9005680  49.8130684  64.7021255
  20.5513897  50.4347801  64.9922562  36.5961304  23.4327393  79.3238678
  35.6651459  23.4451180  79.1017303  36.9672050  22.7517567  78.7628021
   4.5474701  68.0012665  51.0434799   4.0453663  67.7601929  51.8219452
   5.4419732  67.7226791  51.2396507  26.5299625  16.9680595   5.4237585
  27.1094627  17.6031322   5.8445830  25.9305649  17.5005150   4.9008365
   6.1730275  12.7295094  81.8422546   5.5276542  13.4011450  82.0627747
   5.7069764  12.1325312  81.2568970  84.9011078   3.7712286  57.8635635
  85.6391907   3.1759765  57.7326355  84.1312408   3.2024314  57.8606186
  35.1021729  56.0424805  39.0772209  34.7479134  56.4034157  38.2645378
  35.8385544  55.4989624  38.7969360  39.8547020  57.2925110  61.9278259
  39.8863182  57.8097458  61.1230278  40.7653275  57.0463295  62.0902519
  80.7729416  38.6201401  45.7305336  80.9405365  38.5879173  46.6723976
  80.7838669  39.5531769  45.5170975  11.6721792  58.9752235  46.4590492
  11.4759045  59.7570419  45.9428444  12.5865746  59.0840569  46.7203331
  18.2689056  10.5805922   7.3178010  18.4829445  10.4369287   6.3959656
  17.3266850  10.7492237   7.3214498  51.8771057  29.2614822  26.2736473
  51.2941589  28.5289536  26.0741253  51.5922508  29.9612274  25.6858997
   7.4288206  49.0008736  39.0261917   8.1584282  48.4542885  39.3179932
   6.9847565  49.2588043  39.8339729  16.6680794  58.9377174  14.0352316
  17.4826355  58.4511795  14.1617622  16.0169220  58.2660522  13.8325224
  35.9539909  26.1313686  72.7795029  36.5017090  26.0194893  73.5565033
  35.2270660  26.6791401  73.0757370  65.7286758  69.4133453  45.6596260
  65.1558380  70.1793213  45.6226730  65.4083023  68.9105682  46.4084930
   2.8110161  44.7925568  61.3646317   3.1804969  45.4920616  61.9035301
   3.5734696  44.3302917  61.0164833  59.8545418  30.7707462  75.6944809
  58.9232140  30.6012497  75.8363647  60.0196800  31.5966549  76.1492767
  82.3640060   2.9084370  36.9263725  82.9001312   3.6786854  37.1148453
  82.2351379   2.9325044  35.9781914  16.4427452   2.7494636   9.2932405
  16.0709400   1.9548339   9.6760683  16.1209221   3.4574227   9.8513222
  20.3024521  34.4617043  85.8201599  20.4080353  33.6345863  86.2902222
  20.0492420  35.0905914  86.4958954  84.1355209  17.8870373   1.5635843
  83.6736526  18.6801014   1.2916235  84.5076447  18.1075001   2.4174874
  27.5742531  69.2735214   6.3775144  26.6232071  69.2382278   6.4799767
  27.8110180  70.1619644   6.6436725  68.3703995  67.8308411  24.4808483
  69.2455139  67.4686966  24.6196423  68.3547211  68.6286392  25.0095215
  82.0876846   7.6931348  86.2345428  81.9069290   7.6304770  87.1724319
  82.3071899   6.7990041  85.9726715  20.9105892   9.9781027  33.8292961
  20.6462269   9.6185846  32.9824829  21.8626995   9.8806562  33.8441658
  60.5989151   5.0944309  79.0869675  60.3024483   4.5206089  79.7934189
  61.1301231   5.7591834  79.5253220  10.3179388  52.6341248  67.8500214
  10.8502827  51.8434601  67.7623291  10.6067066  53.0271530  68.6736526
  83.8344345   6.5005894  57.5982628  84.2041321   5.6380954  57.7870979
  83.2478180   6.6760392  58.3340187  45.0771484  37.5220337   5.7571235
  45.1634102  36.6990433   6.2382445  45.7738724  38.0777817   6.1063404
  13.0879574   5.9184074  12.8668995  12.4415302   6.6222067  12.8118534
  13.2082949   5.6323662  11.9613991  26.3471718  69.9740829  65.8510818
  26.1608257  70.0663757  64.9167480  26.7541466  69.1113129  65.9300613
  75.8571167  30.4918652  53.8898354  76.6897964  30.1521301  53.5620384
  75.8736801  30.3021717  54.8279076  79.3359833  11.5493002  85.8980255
  78.9408493  11.7250652  86.7519608  80.1807632  11.1485634  86.1029358
  52.8376312  13.1130257  83.7186508  52.0107727  13.0768204  83.2377930
  53.4206314  12.5261126  83.2371140   2.9868283  37.7500954  29.7605648
   2.0899096  37.6471138  29.4425030   3.1314497  36.9873505  30.3205090
  14.7720423  47.4580383   7.0666637  15.4958792  47.5078468   6.4423156
  14.9419775  46.6600418   7.5672178  64.7869492  17.0298462  58.4768448
  64.2975159  17.2524700  57.6849289  64.9325180  16.0860710  58.4110603
  47.0615196  19.7324257  66.9472961  46.9369583  20.1756153  67.7865219
  46.9535522  20.4230518  66.2933807  72.9425735  52.7716675  65.4866791
  72.6547089  53.0724716  66.3485870  72.4415894  51.9706688  65.3329086
  52.7898521   8.9271441  30.2041016  53.4513741   8.2374105  30.1503448
  53.2207146   9.7010508  29.8412533  11.7888641  24.8721867  54.3781815
  10.9619579  25.1372261  54.7809410  12.4604092  25.1694241  54.9921112
  53.4627609  47.6156807  49.0747452  52.9133148  47.4113655  48.3180428
  53.8032532  48.4918098  48.8939285  64.2311249  44.8643227  18.3227177
  65.0446091  44.6537323  18.7811108  63.9484444  45.6947556  18.7057419
  67.0863113  28.1203289  42.5647850  67.9022598  27.7061386  42.2838783
  66.9838638  27.8526363  43.4780617  70.1249924  62.0924110  16.4282379
  70.5409164  61.5710449  17.1148357  70.8402100  62.6030350  16.0488110
  41.2449112  46.0511246  66.8590851  41.7331085  45.4417915  67.4128113
  41.7430687  46.8672447  66.9039230  45.1880226  71.3167648  60.4744034
  45.8065567  70.6853485  60.8417740  45.5894966  71.5939941  59.6508789
  13.4462109  46.5866318  77.9775467  13.3905745  46.9178047  78.8739090
  12.8954897  45.8037300  77.9768524  70.2414246  57.1972504  73.6888351
  70.8962936  56.5947990  73.3360825  70.7513275  57.9307098  74.0327301
   1.8552209  51.6570663  68.0336304   2.3381481  50.8786049  68.3111496
   1.2864355  51.3474388  67.3287582   8.5598955  55.4417381  61.8970032
   9.2827864  54.8673172  61.6446190   7.9069724  55.3221931  61.2073441
  70.3456955  63.4521027   4.4970841  69.7524719  63.3368568   3.7547650
  70.9692917  64.1167068   4.2044024  37.5722656  56.8847809  71.1632996
  38.0742950  56.1793594  71.5714340  38.2309341  57.5304222  70.9072952
  63.9952583  22.1349945  48.8577194  64.7457962  21.7879086  49.3398628
  63.3223495  21.4596767  48.9435577  16.7210445  59.9261284  19.8372974
  15.8861208  60.0984917  19.4020672  16.7512627  60.5574875  20.5561199
   4.3543210  29.0168076  15.8349791   4.6654940  29.6781616  15.2169065
   3.4014688  29.0350380  15.7456942   1.6522239  53.2050018   4.7672911
   2.3235629  52.5440178   4.5980635   1.0767812  52.8010826   5.4168663
  18.3333302  34.2026825  83.5088348  18.9530926  34.9321442  83.5118790
  18.6175442  33.6439056  84.2321701  23.4173431  64.6469040  62.6733017
  24.0215969  63.9075813  62.6061592  22.5667019  64.2842178  62.4261246
  27.3068409  40.4315033   9.1227541  27.7206306  39.9521942   9.8405800
  27.8667450  40.2594070   8.3657055  45.5674553  69.1674042  54.7105370
  45.2804947  68.6334152  55.4513054  45.1056824  69.9985123  54.8212776
  48.7156105  44.6571465  33.2418518  49.2973061  44.2730598  32.5858459
  48.5811729  43.9578896  33.8815346  51.0259209  37.8977928  86.1935272
  51.1627998  38.7172928  86.6688309  51.8770332  37.7035713  85.8009491
  41.4049530   8.2919645  11.2006054  40.9701157   8.0254192  12.0106058
  41.9454575   7.5394692  10.9601068  43.0707550  39.5660057  60.1082993
  42.5647697  40.1083946  60.7133026  42.7773438  39.8391533  59.2390862
  26.0539532  50.2725487  47.7387047  25.6067200  50.5480461  48.5389023
  26.6407833  50.9993782  47.5299454  50.4090118  46.2330971  66.0320129
  50.0766411  45.4349289  66.4427261  51.1942024  45.9517174  65.5624008
  28.6077785   5.5954738   3.1926029  27.6766968   5.6512976   3.4075537
  28.6274242   5.4688330   2.2440207  73.9799271  33.3561630  67.7995300
  73.3887558  32.7768211  67.3187866  74.7915649  33.3446312  67.2922363
  48.5195045   3.3873947  76.0688248  48.8755531   4.2036510  75.7178421
  47.8293114   3.6663182  76.6705399  79.4848709  33.1432457  19.8619537
  80.0039978  32.7929993  20.5858765  79.5049896  32.4544525  19.1975822
  23.0242615  69.4498138  16.4273338  22.2089672  69.6830826  16.8713093
  23.6168556  70.1772079  16.6169815  56.4492950   4.4389553  58.8132019
  55.7544098   3.7807651  58.8008957  57.1196671   4.0687952  59.3875008
  79.2336273  69.0677185   4.3780756  79.6931229  68.5802765   3.6943436
  79.1187973  69.9443512   4.0112443  17.2632675   2.4405873  78.6871643
  16.5628891   3.0479550  78.4488220  17.0058060   2.1028686  79.5450058
   5.1292810  55.0588150  26.6115017   4.2624846  55.0672302  27.0174866
   4.9534454  55.0825653  25.6708908  83.3786850  26.6732674  27.9745007
  84.0531693  26.3278236  27.3897171  82.9315796  25.8961945  28.3098850
  27.1684990  67.5257568  35.2395058  27.3312664  66.8367462  35.8837051
  27.9713459  68.0469818  35.2382507  42.2621078  65.2457504  83.2985764
  43.1529045  65.4078064  83.6091537  42.2166595  65.6966782  82.4554672
  16.9521255  68.7443848  19.5747375  16.5733833  68.1103745  20.1836815
  17.1491108  68.2339554  18.7893181  59.8747482  52.7409859  34.9463844
  58.9730530  52.7081642  35.2659225  60.2280045  53.5532722  35.3091927
  78.1864548  23.8264408   8.6370316  77.5944214  23.4669933   7.9763322
  78.5141144  24.6378021   8.2490072   0.8072791  24.9707508  33.0465889
   1.4456099  24.4532738  33.5374908  -0.0429608  24.6611023  33.3587456
  59.8359261  18.6365547  11.4495354  59.9371796  19.4013271  10.8828764
  58.8945732  18.4631195  11.4518461  15.7594051  66.8562698  16.9947414
  16.5241833  67.3600845  16.7163200  15.9760799  65.9503937  16.7741280
  11.7750378   6.7941046  89.1763382  12.5497026   7.1814299  89.5839005
  11.5460501   7.4009233  88.4723740   5.6763129   7.0702658  11.9207869
   5.7049241   7.8869777  12.4191790   5.2874002   7.3155050  11.0812407
  18.4763660   4.1035285   6.0221915  18.7153778   4.1952472   6.9445214
  18.0650101   3.2410550   5.9659891   4.8987560  29.9401264  12.5192986
   5.0653362  29.8312511  11.5830135   4.0538411  30.3879509  12.5617619
  21.7711601  29.0186195   1.9298389  21.3270531  28.8949871   2.7687168
  22.4223022  29.6988945   2.1015205  80.0146332  10.0239744  53.1959763
  80.2445831   9.7223091  54.0748100  79.7053375   9.2377033  52.7461433
   4.8807898  40.1310043  51.1166382   5.5260534  39.5512962  50.7119141
   4.2897978  39.5415611  51.5851631  50.1900406  20.0973759  78.2423172
  50.9737244  20.6376629  78.3431168  50.0738792  20.0181904  77.2954941
  60.6204109  65.7932129  77.7865067  61.1020088  65.3793716  77.0702515
  61.2512207  65.8376160  78.5050735  57.7019997  42.9811668  47.7674637
  57.0569496  42.8068275  47.0820808  57.3444977  43.7274437  48.2486000
  17.6044312  70.7604675   1.4649889  18.3867054  70.3181305   1.7945634
  16.8988552  70.4562607   2.0358255  25.7521152  19.9625130   2.4133031
  26.5002193  20.5497322   2.5216768  26.0365238  19.3318558   1.7517773
  31.6052322  65.2231445   0.3733176  31.1847954  65.3389435   1.2254064
  31.4236279  66.0373917  -0.0960017  51.9063148   2.7702358  45.3760185
  52.0046806   2.0995021  46.0517921  52.5547867   2.5376146  44.7114830
  23.8703136  30.5769653  71.2193069  24.6350784  30.6762447  71.7863235
  23.9652805  31.2697010  70.5655975  44.9211884  46.7470436  39.3245888
  44.9460411  46.5136261  38.3966179  44.0781059  47.1856956  39.4387283
  18.6862755  70.0938797  79.2005386  18.5577545  70.3234634  78.2802048
  17.8240280  70.2111359  79.5993042  63.4482689  41.7502022  62.7908325
  63.7653999  41.7034149  61.8889084  62.5060310  41.5964661  62.7216911
  68.5511169  40.7202263  59.0296402  69.3205566  41.1622658  59.3885307
  68.9037399  40.1245270  58.3685570  36.3750343  36.7874069  39.7754021
  35.6107368  37.0994415  40.2598801  36.0341377  36.0929947  39.2116508
  75.6884766  51.2111282  50.3509560  76.3750992  51.6928635  49.8897476
  75.2587051  50.6948929  49.6690216  76.3010330  50.0370522  85.0695724
  76.7977142  50.8395691  85.2292938  75.4185791  50.3400688  84.8558350
  73.4909363  16.0805950  68.0772858  74.1316681  16.4286823  68.6973877
  73.9645309  15.3985786  67.6010590   9.1809530  28.5799847  63.6411057
   8.9435692  29.1086521  62.8792725   8.6238956  27.8041992  63.5772705
  62.3333435  37.7998009  45.1724701  62.9912758  37.6380920  45.8486404
  62.5697250  37.2046089  44.4610596  71.1869965  70.7497635   1.8667381
  71.3336563  69.9045486   1.4420885  71.9279175  70.8492279   2.4645462
  69.8056564  40.5874634  48.7531509  69.5706100  40.4674568  49.6732483
  69.3690338  41.4003143  48.4984627  85.7902908  23.7184086  86.9147873
  85.4083862  24.2154179  87.6382294  85.1172562  23.0788383  86.6819839
  67.1396332  64.1747131  82.7948227  66.6038132  63.6434402  83.3837814
  67.9609070  64.3038635  83.2692413  83.9391937  26.7260246  77.1798248
  84.7851639  26.4156952  76.8569183  83.9866180  27.6785908  77.0985870
  38.3926506  49.0641747  83.8359299  37.8706741  49.8334312  84.0639954
  38.7806511  49.2807770  82.9881287  10.2930250  30.2126026  65.7054138
  10.6698303  29.6568165  66.3875809   9.9733276  29.5978317  65.0450516
  62.2576523  64.3496475  25.2377930  62.6538811  63.4796715  25.2865772
  61.8456650  64.3771057  24.3742294  52.1494446  50.6511765  63.9933662
  52.7801476  49.9467506  64.1424561  51.3309593  50.3225212  64.3652496
  78.0851822  43.4058800  14.2977924  77.1643219  43.6669807  14.2892094
  78.3365555  43.4447060  15.2205791  67.7346344  26.0215168  81.1623840
  67.1520844  25.2800903  80.9975815  68.2852478  26.0717850  80.3810196
  46.5970192  34.5480919  75.2950058  46.6349983  35.2073097  74.6020279
  46.1905251  33.7873764  74.8799057  83.9870377  44.0224724  17.3837299
  84.3040390  43.1745491  17.6948166  84.7510757  44.5968933  17.4338989
  39.2602882  37.7006874  67.8249359  39.1000137  37.7014046  66.8812485
  38.9774361  38.5673904  68.1165695   5.9989986  46.6442070  57.4563255
   6.1861024  47.0152435  56.5940285   5.0441942  46.6604729  57.5220184
  80.6086044  11.0685892  21.6439915  81.2553940  11.1753721  22.3414822
  80.3908463  11.9626293  21.3803558  15.1431999  18.1202984  64.8312912
  15.1239777  18.7088718  65.5859070  15.3936892  17.2714596  65.1959229
  60.1575050  36.6588860  73.8504639  59.4646225  37.0365257  73.3086777
  59.7070732  36.0232391  74.4066086  84.0010223  41.8235092  19.7808723
  83.5344925  41.1130638  19.3405800  83.4355698  42.5875359  19.6678982
  64.5125961  18.6433430  32.4389114  63.7531662  18.0965881  32.2375069
  64.8941498  18.8472118  31.5850468  43.9628105  31.9433270  41.0141411
  43.4576263  32.7047195  40.7290077  44.8470039  32.2817307  41.1552620
  73.7240753  22.6918583  28.9936333  74.5490341  22.2869549  28.7258129
  73.8770828  23.6320534  28.8995342   5.2239380   7.9125319  62.9250870
   5.5388832   8.0845251  63.8124771   5.2007012   6.9578285  62.8600197
  72.2445526  71.1916962  59.2472916  72.8937607  71.8950500  59.2396431
  71.5835266  71.4827118  59.8754501   6.6031723  52.4059792  23.3242149
   6.8349800  53.2020340  22.8458900   5.9975367  51.9453812  22.7434521
  75.3345032  50.2898293  33.1435738  74.9799423  51.1718330  33.0313568
  74.6362076  49.7104111  32.8388100  76.3117828  26.1410389  18.1972752
  76.2511978  25.4820976  17.5056400  75.9083099  26.9225445  17.8195305
  45.0104332  36.6522064  37.8529434  44.1749611  37.1184654  37.8815155
  45.4851570  36.9639168  38.6234627  46.3955116  47.3176155  54.9118042
  46.8108711  47.0485954  54.0924530  46.5180511  48.2664528  54.9421997
  79.1618042  43.9159813  78.9637833  79.8391037  43.5639572  79.5413437
  78.4516983  44.1688805  79.5537186  52.2976341  58.4338951  41.6450539
  52.7495193  57.8395767  41.0460396  52.6595726  58.2265167  42.5065804
  12.3928366  63.6221504  55.0350037  13.3245811  63.7778854  54.8806305
  12.1975441  64.1109314  55.8344917  56.9747696  28.3472157  63.5480385
  57.5185738  27.6429501  63.1951637  57.5639763  28.8426933  64.1168671
   1.3983340  48.8899994  39.1290016   2.1574600  49.3844872  39.4379349
   0.8399374  48.8010750  39.9013481  61.4373703  39.3201447  88.3386002
  60.6483803  39.7579536  88.6580582  61.1847801  38.4004402  88.2575226
  59.0659866  40.4778061  48.1537209  59.2999382  40.0920296  47.3095207
  58.6191101  41.2937965  47.9285698  69.1348648  10.3647633  41.8578110
  68.3586655   9.9768524  42.2618752  69.6060257   9.6212549  41.4817276
  61.3575668  47.6340675  11.8763218  61.0991364  48.5539207  11.8187094
  62.2439346  47.6564407  12.2369967  50.1031342  68.5112381  72.0704575
  50.9977493  68.3453140  71.7732010  50.0451393  69.4644928  72.1350784
  34.7767868  21.9510937   7.6077743  35.2592926  22.6881390   7.9821854
  35.1342812  21.1812458   8.0502281  62.6189957  68.1454544  45.2621002
  63.3080025  67.9203186  45.8872528  62.5086861  67.3557434  44.7325516
   9.4454384  58.9859962  77.6013260   9.7207174  59.7074165  78.1670151
  10.1690025  58.8758316  76.9844360  79.5121078  58.8162575  53.8321724
  78.9871750  58.1051674  54.1996269  78.8702011  59.4166031  53.4530106
   5.4442191  59.5366135  74.2269516   5.3774767  60.0413094  75.0375443
   6.3841619  59.4853745  74.0534210  57.6848145   2.8474805  39.2188339
  58.5405159   2.9105561  39.6431274  57.8323212   3.1764333  38.3321152
  70.3828354  59.5178986  44.7005501  69.5394592  59.2365036  45.0551872
  70.4215775  59.1202621  43.8307114   8.1655769  50.6791115  64.9557037
   7.7581339  51.4948616  65.2468567   7.8560443  50.0212479  65.5783081
  66.6235580  16.8437576  63.0122528  66.7803574  16.4077549  63.8498383
  65.7204742  16.6174927  62.7898216  11.4671440  46.4890747   7.0175276
  12.1467924  46.5539856   7.6884198  11.7213535  45.7307472   6.4916449
  21.9014034  64.7070847  16.1184807  21.5927353  64.5667419  15.2233486
  22.5231247  65.4313354  16.0466595  64.4231339  40.2611923  84.1160431
  65.0702591  39.9388351  84.7433777  64.0296783  39.4692955  83.7495422
  78.6068954  29.7766361  53.2205353  78.6426849  29.0141773  53.7981224
  78.9184341  29.4519520  52.3756943  37.0585365  13.2976055  11.6551247
  37.2489777  12.4244413  11.9979773  36.8410645  13.1512556  10.7345161
  61.0622253  71.4083557  13.7853670  60.3460579  70.8613510  13.4626818
  60.8789330  72.2776489  13.4290571  19.0123558  40.1484337  73.0228424
  19.3634377  40.9631386  73.3823318  19.7858925  39.6497726  72.7597656
  54.1788406  49.7704315   6.2438383  54.5338974  50.3077888   6.9519434
  53.9169312  48.9545937   6.6705098  27.3904877  67.9774094  45.2909317
  26.6371708  68.5299606  45.0825272  28.1357861  68.4293976  44.8953743
  48.0159607  13.6438999  45.2885056  47.3795242  13.0361042  45.6650238
  48.7368507  13.6562681  45.9181061  10.1469460  46.1986160  31.9600334
   9.7601566  45.4221611  31.5553818   9.6635818  46.3078804  32.7789688
  45.5327950  42.9079056  53.7430153  45.8368378  43.5288239  54.4050179
  45.0010147  42.2790108  54.2307968  50.2357788  55.8566132  57.0158424
  50.6555901  55.2112389  56.4470901  49.6985168  55.3360825  57.6130257
  15.0876942   0.3669465   7.2634740  14.2447767   0.8190729   7.2273588
  14.9740505  -0.3971455   6.6982479  22.5221825  58.1396103  37.6625099
  22.6319885  57.4103317  37.0523262  22.3824387  57.7218895  38.5123405
  66.3041229  11.6301098  39.4999313  66.6570969  12.3083048  40.0758591
  66.8357315  11.6894703  38.7061462  82.2094498   2.6718760  60.5318718
  81.6785126   2.3708417  61.2692490  82.3888931   3.5918968  60.7257652
  31.2066021  51.2179337  85.1983490  31.7572117  50.4349594  85.1950912
  31.7740440  51.9083595  85.5412140  46.3997078  44.4075089  48.1487885
  47.1502838  43.8385773  47.9779434  45.6627998  43.8060951  48.2560120
  72.6390915  55.7844391  45.8388481  73.4992905  55.5108643  45.5203514
  72.6890106  56.7397270  45.8729515  70.8534012  61.8511505  77.3597717
  71.4224625  61.1599083  77.6982803  71.3087540  62.1776237  76.5836945
  42.6182632  37.6059723  86.4743881  43.1051826  37.0712051  85.8473587
  41.7002983  37.3877335  86.3132935  56.4660072  46.5973587   1.5498896
  55.9347305  47.0099068   0.8688765  56.5350304  47.2619553   2.2352936
  56.6124306  66.7218018  37.0033226  56.7930260  65.9912949  37.5949135
  55.8861961  66.4160156  36.4598999  83.7115707  49.9968109   2.3685184
  83.9235916  50.6265335   1.6795127  82.8955994  50.3228607   2.7481558
  57.0060692  56.1300468  15.9339609  56.8438072  55.9053345  16.8501530
  57.2752876  57.0483284  15.9566326  54.3202591  56.9965630  31.5903511
  54.0687637  57.8956985  31.3793221  55.2693214  56.9781303  31.4671726
   3.3332913   3.8551278   1.6476568   2.4064708   3.6232016   1.7063584
   3.4215000   4.6311874   2.2009943  46.7098389  49.1710930  34.6915207
  46.4483490  48.2503548  34.6817932  47.4676094  49.2110443  34.1080666
  59.0069695  27.5765266  54.7147369  59.8778954  27.9725761  54.7441025
  58.7479057  27.6355286  53.7951546   0.1234143  33.6626663  30.3723812
   0.6747943  34.4396095  30.2797966  -0.3438012  33.7974091  31.1968727
  58.4270515  44.9971123  43.5989342  58.7803497  45.4119644  42.8119736
  59.0942345  44.3598328  43.8538361  71.7489624  44.0683899  22.1219769
  70.8959732  43.9322433  21.7095394  71.8701859  45.0178452  22.1137257
  82.2043457  58.6914940  31.7698212  82.5410538  59.4146767  31.2407970
  82.2038422  59.0297470  32.6652641  54.9402008  53.5425568  74.6770706
  55.4095993  52.7474518  74.4246674  54.8933640  53.5000496  75.6321793
  37.1350937  39.2623100  16.1286430  36.8283234  40.1603813  16.0037651
  36.6171227  38.9321823  16.8627777  39.1642761  55.8208046  86.8357086
  38.7877274  55.8567352  87.7149963  39.8470268  55.1525192  86.8946609
  23.9360790  67.9173889  31.2914581  24.0168743  67.8765717  32.2443695
  24.3585072  67.1166077  30.9807529  51.6085472  54.3839226   6.2137127
  51.5638313  53.4419479   6.3777723  51.2886696  54.7833786   7.0226307
  74.4769440  58.9780655  83.8295441  74.2321014  59.6369591  84.4792709
  74.6470947  59.4795876  83.0322037  53.2918015  44.7297363  15.9396009
  52.8475533  43.8885307  16.0456810  53.5028076  44.7732277  15.0069618
  56.2076454  22.3289299  33.8334770  55.5703316  21.8670902  33.2887154
  55.6990471  22.6476688  34.5791054  34.2288780  46.5890160  23.2808952
  33.3523293  46.4352837  23.6334057  34.4465065  45.7795601  22.8186722
  56.3706131  64.2252579   9.8048172  57.2955284  64.0015106   9.9082584
  55.9364319  63.3855667   9.6543884  36.9569702  57.0490150  43.6849976
  36.6993637  56.6928787  42.8346825  37.4709930  56.3511391  44.0911789
  64.8182449  34.6800652  68.4183884  64.2831955  35.4226608  68.6985855
  65.2779312  34.9960518  67.6405258  30.2076626  65.4584885  27.2150936
  29.6445255  65.7594681  27.9281998  29.6346130  64.9217377  26.6676102
  85.7767715  64.3711777  59.6155624  86.3822632  64.0078125  58.9693604
  85.2616043  63.6200714  59.9099808   1.1336120  55.4465637  51.1489906
   1.4753081  55.2319756  50.2809906   0.3107661  54.9612427  51.2091751
  54.9481316   5.6446199  13.8258753  54.4933014   6.4851098  13.7716570
  55.8498878   5.8743033  14.0501747   2.1947958  39.4332771   6.3553047
   2.5601871  38.7291145   6.8909130   2.9144936  40.0564270   6.2555418
   1.7062666  13.9957190  85.2608337   2.0866358  13.3359985  85.8407669
   2.4347136  14.5811024  85.0536575  55.4200439  57.2752190  20.7756329
  56.3431511  57.3841896  21.0041866  55.2904778  57.8504295  20.0215950
  80.1769180  37.8457527  39.1239624  79.7737427  37.9958382  39.9790382
  80.7737045  38.5850182  39.0074730  34.3597946  27.4160728  21.8460388
  33.6908569  27.8011684  21.2799530  34.1427155  26.4842205  21.8736324
  77.8055878  20.1267853   6.9766107  78.5800858  20.2194233   7.5314121
  78.0066223  20.6436520   6.1964388  39.7471199   1.3844714   1.2702605
  39.6528931   1.4389490   0.3192686  39.2716331   0.5899557   1.5129339
  56.5413094  69.2029648  52.6332245  56.0860252  70.0398254  52.7260475
  56.0377655  68.7284241  51.9718018  58.3335571  32.9812279  39.3252907
  59.2475929  33.0268517  39.0447807  58.0986824  32.0584908  39.2271690
  77.5081100  66.6250839  24.7779751  78.0450821  66.7364731  23.9934502
  76.9497299  65.8729248  24.5812206  40.3696899  61.6844673  58.7602463
  39.7779655  62.4278564  58.8763008  39.7918549  60.9224319  58.7198181
  86.1605682  64.2383957  49.0810165  86.9055710  64.7372742  49.4161606
  85.4149628  64.8318634  49.1709862  76.1476669  10.2101812  70.7874756
  75.2336502  10.0543060  70.5497742  76.2024231   9.9553833  71.7085190
   4.3211451  20.3237133   1.8415262   4.1697288  21.2021065   1.4926268
   4.7749863  20.4705734   2.6714008  16.9426613   4.4992437  66.6340942
  17.2661591   4.0154009  67.3940125  16.0005531   4.3301454  66.6257935
  74.1016998   9.2475548  42.7817459  73.4366150   9.4098063  43.4507523
  74.9290848   9.2416515  43.2630272  27.9874020   3.7348657  14.6602659
  28.1929264   4.6251307  14.9456081  28.3081932   3.6920159  13.7594395
   6.6149144  68.5249176  73.1899261   6.1992912  67.8462524  73.7218018
   6.1098719  68.5348206  72.3768692  14.1319685  26.8808155   8.4066505
  14.5641651  26.6444798   7.5859289  13.2639723  27.1848412   8.1413517
  83.5514908  30.4515629  58.8119278  83.7613220  30.8344250  57.9600945
  82.6183853  30.2449741  58.7583580  31.7980270  62.9820328  48.5051384
  31.3399239  63.2118111  49.3135796  31.2771816  62.2730446  48.1279297
  74.4698029   3.5855408  47.4191742  73.6380920   4.0593395  47.4192200
  74.8076172   3.6945741  48.3081207  72.9628067  48.3365860  29.7220860
  72.7676468  47.4804688  29.3410168  72.3409119  48.4246330  30.4443913
  79.4865341  37.2173882  86.3356552  80.1315308  37.8988609  86.1464233
  79.9488068  36.6012306  86.9038849  38.1506195  59.8073158  58.7551003
  37.2015610  59.8048782  58.8796577  38.2939529  59.2427025  57.9955635
  44.5986710  51.8021011  75.7299423  44.8876534  51.2638741  76.4668503
  44.8136215  52.6981583  75.9890060  56.8713226  43.4906807  63.1334381
  56.3387451  44.2760620  63.0078659  56.8911934  43.0744667  62.2716942
  22.5590153  66.1553650  24.4132690  23.0225048  66.8680954  23.9734745
  22.9166641  66.1489716  25.3011189  84.9391632  42.0629845  64.1724014
  85.7952881  42.4812355  64.2637863  85.1107941  41.2767715  63.6540947
   4.7930622  57.7176208  64.9174271   4.9807749  58.6562271  64.9213028
   3.9372091  57.6462746  64.4947510  42.8097076  37.7530746  24.3361053
  42.8833160  37.9233475  25.2751579  43.4704170  37.0827904  24.1617126
  42.5308685  48.6216049  20.1644459  42.0010223  48.0580101  20.7282314
  43.0905991  48.0160141  19.6784515  31.0623341  47.0292854  50.7168694
  30.6137123  47.3101006  51.5144386  30.8297043  46.1054573  50.6238365
   7.1427741  17.8400917  13.2586956   7.4751954  18.2990379  12.4872713
   6.5334024  18.4587631  13.6613665   3.2192874  12.7057810  76.8423080
   3.7770669  12.9827280  77.5692291   2.6475077  12.0375929  77.2202301
  20.9808712   5.7269034  58.3080559  20.3948784   6.1523995  57.6821213
  20.8541603   6.2125778  59.1231003  19.1740112  55.0613480  21.6864986
  18.8134251  55.9031715  21.9649620  20.1048965  55.2342682  21.5458508
   6.5108714   9.6298609  86.9115295   7.0469594  10.3974085  87.1108093
   7.1202850   9.0093012  86.5118332  17.3752403  61.3564758  15.5026159
  16.7525368  60.6873055  15.2185726  17.8113575  60.9707489  16.2623844
  31.4955635  55.0020714  83.5473022  31.1282520  54.9461212  84.4294510
  30.7999897  55.3988953  83.0229568   0.4363256  13.8486128  72.4855652
  -0.3968756  14.2636337  72.7086487   0.7886772  13.5524664  73.3248444
  14.4286451  33.1876183  84.7373810  14.8105793  33.9093246  85.2368774
  13.5329399  33.4709511  84.5539093  15.6000090  22.7490978  80.3019714
  16.3594685  22.5564384  79.7521210  15.3032494  23.6101208  80.0073395
  35.4502945  40.6788559  32.3812637  34.6356812  40.6006279  32.8777695
  36.1407509  40.5679855  33.0348778  10.3522654  47.3573456  75.8705444
  10.1332483  48.0495224  76.4943695  10.5024967  46.5838547  76.4140320
  68.5682526   2.4631557  88.4459610  69.1115875   3.2454550  88.3509521
  69.1935196   1.7539904  88.5955048  82.6187057  14.0365000  88.0217285
  82.6095810  14.2603741  87.0911179  83.3842163  14.4932528  88.3704605
  36.2423553  58.2722855  20.0899773  35.3275719  58.0656319  20.2815495
  36.2102432  59.1287842  19.6638241   3.5163310  43.9332008  74.3019791
   4.1249957  43.2965698  74.6767578   2.6676641  43.4907379  74.3169403
   6.6540637  51.4575272  12.8266010   6.9957399  51.9012947  12.0503559
   6.9036002  52.0248070  13.5560913   4.7311406   4.6567945  27.4905472
   3.8253436   4.5915074  27.1880550   4.7101040   4.3163781  28.3849201
  31.2516842  42.9051208  33.2885666  31.7048016  43.1727600  34.0881195
  31.9288979  42.9222488  32.6123123  13.9698887  63.8914452  23.4095078
  13.3832731  63.2522087  23.8138466  13.4122734  64.6485825  23.2305050
   6.8537011  34.2712135  42.7080040   6.0689211  33.7434731  42.8557854
   7.1149654  34.5618057  43.5818062  66.2457809  64.2672653   1.8503749
  66.4201126  65.1466370   2.1858525  66.7928543  63.6934738   2.3867621
   9.9186249  63.2578354  53.2330856  10.7314854  63.6994934  52.9872627
   9.7087908  62.7057037  52.4798584  49.0005112   8.4442797  65.5799713
  49.3818550   9.1907873  66.0420761  48.0550728   8.5691881  65.6622772
  62.7188721   1.8392261  18.4834709  63.1492767   2.2942696  19.2072945
  61.8196831   2.1671774  18.4952431  46.5008507  70.6682816  10.1909142
  46.2367706  69.7772522   9.9616671  47.4289894  70.7097778   9.9605350
  79.5173721  38.6577644  41.7755241  79.8251114  39.5636787  41.8047142
  78.9245605  38.5819817  42.5232277  17.1454258  43.9361687  63.6059875
  17.3454208  43.1113968  64.0486908  16.2236938  44.0984116  63.8067818
  72.9017029  69.5899506  70.4262543  73.1167221  69.9808655  71.2731171
  71.9606781  69.4209442  70.4724808  74.9954453   9.1443167  28.6495266
  74.2134857   9.0372715  29.1911182  75.1649323  10.0863600  28.6571274
  43.1499557  67.0879593  45.8790627  43.7556114  67.0149918  46.6166878
  43.4534187  67.8560028  45.3950615  86.5407486  24.7070122  75.0216599
  86.8222046  23.8787117  75.4101639  86.8538437  25.3758297  75.6306686
  83.7388611  25.5239048  18.0623932  84.2975616  25.8218899  18.7802277
  82.9131699  25.9904537  18.1919956  29.0886879   3.3919992  12.1604071
  29.3826141   2.4810662  12.1541357  28.6765156   3.5165679  11.3055210
  27.3895721   6.2911568   5.9091411  27.2353306   5.3470407   5.8761840
  28.2723122   6.4021006   5.5560217  64.4199371  54.3156395  41.0369148
  63.6636658  54.5332413  41.5818253  64.4319763  53.3587685  41.0149994
  78.2294464  33.6875267  71.4120483  77.6183624  34.3740044  71.1445389
  78.8091507  33.5759735  70.6585770  76.4129791  13.5493107  53.6593056
  76.6955566  12.6514406  53.4854889  75.4596481  13.4921780  53.7235641
  49.4721985  56.6816025  12.8518314  49.0447044  56.3199005  13.6281395
  48.7600861  57.0755653  12.3479261  57.6084747  38.3412781  60.9814949
  57.5198517  37.5389633  60.4670372  57.4324226  39.0461159  60.3582420
  52.2595940   5.1748066  42.8848801  52.0826035   4.5563574  42.1760597
  52.2191010   6.0353241  42.4676247  63.6849174  10.8521414  54.3776970
  63.3113976  11.3883181  55.0771446  63.8771210  10.0128708  54.7959251
  43.5340424  21.1539059  62.1010818  43.1618652  20.6466465  62.8224678
  42.8196526  21.7231274  61.8149643  57.6692429  25.9918556  21.5041618
  57.3738632  26.6899033  20.9195995  58.6001282  25.8908997  21.3054256
  26.4324036   8.6421785  17.9337692  26.0482426   9.2073116  17.2634888
  27.3534775   8.9006844  17.9658604   8.5550470  43.9726410  80.8267441
   8.6455173  44.9115868  80.9893112   9.3475275  43.5873833  81.2006149
  55.6936798  51.0222130  74.0325165  56.1887817  50.2038002  73.9963760
  55.7725945  51.3889656  73.1518936  52.2607765  51.9920120  80.5963516
  53.0721779  51.4903450  80.6750565  51.7805405  51.5613213  79.8891678
  60.5518761  57.2102051  12.1582594  60.5962830  56.3288460  11.7874966
  59.7215004  57.2283363  12.6340551  21.8092670  31.0800648   9.6702662
  22.4105434  31.7119160  10.0645542  22.0656414  31.0484066   8.7485819
  37.6079750  56.4528618  79.4343948  37.9076004  55.8105927  80.0777817
  36.9456940  55.9883041  78.9227295  57.5459061  64.3022385  33.5329857
  57.3182259  65.2152939  33.7082977  56.7866783  63.8037910  33.8352280
  51.3202400  50.6406441  78.4395981  50.7560654  50.1979408  79.0736008
  51.6404114  49.9388504  77.8728561  19.0558643   1.6368334  21.3698616
  18.4943848   1.7344356  22.1389179  19.9321079   1.8612665  21.6830082
  23.3328533  64.9412460  74.8637619  23.9306278  65.6635132  75.0567093
  23.2757015  64.9263458  73.9083862  71.2705231   7.4419751  57.0022583
  71.2969208   6.6469512  57.5346756  71.5305862   8.1408739  57.6023712
  41.8164902  53.8267174  64.4481506  41.9464111  52.8786392  64.4257965
  41.2359238  53.9713554  65.1953201  40.5995827  22.1362438  15.7638168
  40.6784172  21.2336884  15.4549322  41.1445808  22.1687851  16.5500431
  10.4397936  20.8356476  14.9941120  10.0846615  19.9539433  14.8813658
  11.3826332  20.7032776  15.0929203  64.4587555  55.2159309  36.4898987
  63.7852783  55.3461685  37.1575050  63.9847565  54.8620377  35.7373581
   9.3784771  34.3136559  12.6085720  10.0647974  34.4749298  13.2560186
   9.4392042  33.3764725  12.4235439  14.3721876  39.5527191  40.2406502
  13.7215443  39.8976440  39.6291618  13.9094276  39.4973450  41.0767250
  21.7908764  41.3194733  25.1751957  22.2140713  42.1725502  25.2721329
  22.5090294  40.7161865  24.9840508  83.5030975  47.9426308  52.9287224
  83.1939240  47.3191338  53.5859108  83.6081314  47.4201622  52.1335983
  74.5138931  14.8180523  37.4773178  74.5461197  15.7747097  37.4767838
  74.3194122  14.5844488  36.5696602  77.4624252  64.8154297  36.0201950
  77.8603821  65.5127487  36.5413628  76.5592270  65.1025162  35.8858528
  35.3728600   0.2833486  33.3010864  34.9737778   0.7841356  34.0125465
  35.8884163   0.9269236  32.8150368  42.1970177  33.6553955  57.4778099
  42.4251556  34.2275162  56.7450981  42.7003250  33.9991951  58.2158585
  76.7595520  44.1473465  80.5179367  75.9720078  43.6060486  80.5727158
  76.7334824  44.6886673  81.3069382  84.0473709  56.3669090  10.4139748
  84.4600143  56.6188011   9.5878334  84.7733002  56.0735970  10.9646387
   8.0701694  54.1975899   5.5123725   8.8255091  53.6096458   5.5165882
   8.4350595  55.0577965   5.7200570  27.4931068  15.9959650   8.7007608
  27.5113392  15.4008713   7.9512520  27.1862564  16.8273754   8.3390551
  59.4696045  67.9587173  22.5329723  59.5132332  68.8268890  22.1322136
  59.4262810  68.1309967  23.4735432  82.0233307  50.7052116  87.6732407
  82.3663483  50.8920670  88.5471115  82.3094330  51.4468575  87.1400070
  62.7269554  18.0650063  25.5558701  62.5992699  18.0914173  24.6075935
  61.9094963  18.4076366  25.9172516   3.8282888  68.6655502  11.4059486
   3.7173431  67.8333206  10.9462557   3.6350732  69.3313446  10.7459412
  70.9436340  54.9265709   8.4061050  70.4883804  55.3404617   7.6728415
  71.8398361  55.2579842   8.3494186  18.8972778  62.8159447  41.4614716
  18.6705666  61.9246140  41.7267342  18.5088234  62.9132233  40.5920639
  47.3794212  17.3682423  55.3627510  48.2373123  17.7080269  55.1081886
  47.3324127  16.5047531  54.9523735  83.6800690   3.5667992  54.6726379
  83.2464142   3.8284876  55.4848518  83.3028564   2.7120724  54.4643555
   9.0259056  21.2083168  58.0357552   9.8513842  21.6210995  57.7819290
   8.3798466  21.9126549  57.9833183  50.6700020  66.3023911   8.5611124
  51.4025078  65.6885910   8.6151257  49.9030266  65.7479782   8.4175863
  34.0843811  -0.0300465  40.3166084  33.3182106   0.5379960  40.2357407
  34.1841660  -0.4225289  39.4492950  57.0098114  20.7499905   1.7345549
  57.3426628  20.9634552   2.6062624  56.9890366  21.5888844   1.2740576
  42.7776756  37.2049370  69.2261810  43.3976135  37.2701340  68.4997787
  42.0767784  36.6444244  68.8933105  66.7292404  33.7703018  70.1515121
  66.1699677  34.1418839  69.4693298  67.2042313  34.5213432  70.5072556
  83.1310577  68.5023651  75.5175400  84.0377197  68.2352829  75.3663101
  83.1303940  69.4467773  75.3616028  19.7251015  32.4375229  74.9778976
  19.3959179  31.7277737  74.4264221  20.2725754  32.0000153  75.6298904
  51.5696373  33.1378098  89.0566559  51.0112190  32.6612396  88.4424133
  51.4283485  32.7015228  89.8968506  46.4302826  36.7088165   8.5848122
  46.3106117  35.8812027   8.1190186  47.3437576  36.9447327   8.4231501
  47.4072838  59.2829323  73.0980148  47.0763893  58.4096413  72.8880081
  47.9930801  59.1445198  73.8422699  81.6973190   2.9084873  31.4163647
  81.6098175   3.7795725  31.0293427  81.8946609   2.3358192  30.6751919
  32.0716400  47.9799309  53.5211449  31.8319206  48.6422462  52.8729897
  31.3373184  47.9687767  54.1350479  41.0134392  29.6799622   2.9891014
  40.1153145  29.3606052   2.9018183  41.0025558  30.2107677   3.7855682
  40.8569832   1.5259966  20.8188686  41.7766075   1.6314130  21.0626144
  40.3928452   2.1735990  21.3493576  69.9275513  46.4412422  84.6185532
  69.1430206  46.1963615  84.1278687  69.7634888  46.1237488  85.5065384
  44.3933411  35.9138641  71.2708511  43.6782761  36.0196037  70.6433716
  44.5364838  36.7930489  71.6212540  65.9267197  27.1646347  30.3085117
  65.7910004  26.2300644  30.4646912  65.1030960  27.5738888  30.5738163
  31.9362907  62.4754639  77.0887451  32.4426155  63.0543938  77.6585770
  31.0262089  62.7362022  77.2301712  62.0694923  42.4795647  20.6248016
  61.8699913  43.0947762  19.9191475  61.9249001  41.6161156  20.2377892
  29.6398907  49.3471451  59.0427437  29.8103752  49.0979080  59.9510651
  29.7081127  48.5277367  58.5526962  34.0048256  27.4605846  69.5868530
  33.5797348  27.4384060  70.4441986  33.6492043  28.2418594  69.1633301
  65.6512756  37.0467949   0.3000961  65.1858368  36.3078003  -0.0916723
  64.9586334  37.6476898   0.5747075   1.5607578  20.5550537  36.4417038
   1.1075213  20.4102173  37.2722664   1.0743016  20.0275211  35.8082199
  40.5058365  65.2191772  74.7756424  40.3050690  65.8763123  74.1092300
  41.1639366  65.6356888  75.3321152  28.3037472  67.5631104  85.8070374
  27.6596527  67.3120193  86.4691010  28.2734909  68.5197449  85.7941360
  56.4572563  60.2571182  44.4984436  56.0627403  60.4774628  43.6546211
  56.5111351  59.3014412  44.4953957  32.3854485  33.7958832  74.5210037
  32.0653763  33.7431183  75.4215622  31.6249294  33.5753746  73.9832077
  78.1768951  50.9773178  62.3340874  77.7861557  50.9124680  63.2054901
  78.6924744  51.7833099  62.3621674  51.7541504  24.4551296  70.5858078
  52.4001312  24.0134907  70.0345459  51.7092667  25.3450489  70.2361450
  82.6604767   3.8037386  28.0507679  82.6284180   4.5257454  28.6783905
  83.5899887   3.5849473  27.9846573   0.1248618  10.0863533  74.2595825
  -0.0643676  10.7950039  74.8745956   0.7813153  10.4524784  73.6669235
  77.0596313  30.6145840  44.7327118  76.8271790  31.5260487  44.5554314
  77.9409256  30.5176430  44.3719292   1.0613248  10.1138039  29.9379196
   1.8077499  10.7122879  29.9678879   1.2348658   9.5521231  29.1825180
   5.1301451  62.3124619  61.0520477   5.0362597  61.4697456  60.6079216
   4.2327218  62.5801125  61.2501068  30.7578049  29.1874027  80.9851685
  31.3837337  28.9649582  80.2959900  29.9000397  29.0601959  80.5798416
  69.2909927  45.6123428   0.4688102  70.1938629  45.2962799   0.5029227
  68.9072113  45.3310280   1.2993557  46.0138206  16.9388142  11.0493870
  46.9353561  17.1965790  11.0730047  46.0316124  16.0049839  10.8399200
  31.2068539  54.4689407  27.3946133  30.7844696  54.7439575  26.5808620
  30.4846916  54.1860619  27.9555874  78.8269119  42.8937035   8.7952337
  78.9080582  43.8442955   8.7176638  79.4119339  42.6614342   9.5163717
  27.5779324  24.7095833  75.9226303  28.3187008  25.2328167  76.2287674
  27.8019791  24.4822178  75.0202255  30.0708084  38.4035187  14.1682701
  30.9361458  38.1396332  14.4809752  29.6765976  37.5941772  13.8430080
  37.7870712  36.0613861  22.8361702  38.5445251  35.8240051  22.3012466
  37.8755226  37.0048599  22.9713230  61.7117195  70.0783081  19.9632721
  61.7945328  70.2807541  20.8951454  62.5692139  70.2909317  19.5948563
  33.5729256  31.4800739   7.9593973  33.7466812  31.0536633   7.1202221
  32.8070869  31.0226212   8.3064699  55.8438148  50.5909805  16.6472301
  56.2216339  50.3609657  17.4960976  55.2289352  51.2981224  16.8424358
  35.7808914  54.0751953  55.5979881  34.9317589  54.1785011  56.0275612
  35.6300163  53.4105339  54.9259033  10.9387894  63.3601189  13.5382662
  11.7604866  63.8141861  13.3515320  10.9558973  63.2131729  14.4839649
  74.8840027   1.7172314  87.4992218  75.1203461   2.6227963  87.2984085
  74.0644989   1.5730327  87.0260849  56.7480583  49.9260445  64.3081741
  57.4040489  49.2350235  64.2165146  56.8684273  50.2538757  65.1993866
  84.1039429  33.4429169   9.2348356  83.7274246  34.2432365   8.8688335
  83.3569489  32.9766388   9.6100912  30.4049759  33.8512802  20.3421841
  30.6019115  34.7558060  20.5856705  31.2155876  33.3738136  20.5187187
  66.2879486  34.5184898  73.6182556  66.4343796  34.5017281  72.6724701
  67.0968094  34.8811378  73.9794617  22.1225948   9.8218489   5.2620950
  21.4491634  10.4284668   4.9543018  22.2216225  10.0257149   6.1920757
  40.3966064  25.6854267  81.2804947  39.8968811  25.1126385  80.6987534
  40.9541130  26.1957874  80.6931686  65.1512680  61.3354454  32.5048676
  64.2950287  61.5587387  32.1398544  65.4488678  60.5922203  31.9801979
  28.0456409  57.3736725  53.3720474  27.7071838  58.2607193  53.4938316
  27.7617035  57.1277580  52.4916306  82.6543427  12.6660624  66.5558701
  82.3827209  12.7185764  65.6395187  83.3133087  13.3538952  66.6501465
   8.1783533  58.4370308  75.1264496   8.8629570  58.3115425  75.7835693
   8.3306255  59.3191109  74.7873688  70.0313110   7.6354880  41.2082901
  69.5982132   6.7955995  41.0558281  70.4106369   7.5540071  42.0833359
  34.9268837  38.8777542  23.8259792  34.9802475  37.9241066  23.8887577
  34.2880783  39.0366631  23.1310616  47.2351723  61.8066444  39.1583862
  48.0024681  61.6119080  39.6964989  46.5278206  61.9402122  39.7892914
  36.5827866   0.8839916  39.3999519  36.0364113   1.6501842  39.2248650
  36.3762970   0.6439472  40.3032646  20.2970161  49.9517288  80.4259567
  19.4828892  49.4817963  80.2454224  20.0174866  50.8421631  80.6386032
  47.7940140  11.1491528  49.5020256  47.1772003  10.8680601  48.8261871
  48.4871902  10.4893217  49.4830475  59.9345818  41.9851189  43.9687576
  59.2491455  41.3841019  43.6768951  60.7094231  41.7247620  43.4706955
  46.4418068  62.6683426  48.0322685  46.9093895  63.4238739  47.6762238
  45.6709480  63.0428696  48.4585800  62.0393257  50.3913345  85.1739502
  62.8395462  49.8873253  85.3217926  62.1180649  50.7071800  84.2737961
  72.5559845  24.8936901  26.7700996  71.7041626  24.9016933  26.3335571
  73.1725540  25.1828842  26.0974636  66.2724228  56.4338875  30.3024921
  66.8243713  55.6842842  30.0795994  66.4168549  57.0576553  29.5909557
  29.6498604  54.2600670  73.0952225  30.2242966  53.5189896  72.9027176
  29.8712425  54.9134064  72.4316177  10.2815895  40.2755318  36.5990105
  10.4357042  39.3345833  36.5147781  10.8256559  40.6693420  35.9169998
  73.2251740  51.3050346  23.8550320  72.9372635  51.7522278  24.6508694
  73.5625458  50.4634628  24.1618996  22.3847313  22.7785511  43.4391365
  23.2725964  23.1232777  43.5344772  22.3218861  22.5304508  42.5167885
  77.7323456  62.1932640  74.9658585  78.0253143  62.5691109  74.1357193
  77.7109451  61.2495461  74.8072052  11.8336248  42.2463799   3.9634681
  11.7321110  41.6807060   3.1980007  12.5202627  41.8268852   4.4819136
  35.1851692   2.2221854  16.6242542  35.2927284   3.0172873  17.1462460
  34.3512039   1.8545797  16.9168358  63.6913986  38.2649422  23.6187897
  64.0361176  37.6909904  22.9346981  63.9326515  37.8327637  24.4380875
  50.5076790  21.5565147  63.1475945  51.2468262  21.6669331  63.7456741
  50.7748756  22.0129414  62.3497810  24.7092133  48.4639282  36.1747398
  25.5528698  48.0121498  36.1939659  24.1153450  47.8826141  36.6497383
  40.1328392  54.4225235  10.5743446  39.4060974  53.8184776  10.7266989
  39.8703461  55.2295532  11.0171013  71.4123001  38.2350426  54.9495087
  71.6850510  39.1468010  55.0521545  70.7597198  38.1014252  55.6369095
  30.0177956  69.5564270  71.5119934  30.6385918  68.8323669  71.4308701
  30.0233841  69.7734070  72.4442596  69.0737686   2.9060562  63.3574600
  69.0401154   2.6473246  64.2784119  68.3921509   2.3822384  62.9364548
   6.3248982  68.7842560  23.9514160   5.5211248  68.5583496  24.4195461
   6.0851607  68.7345352  23.0260601  66.2101974  49.7664642  22.1052513
  66.5265121  50.6336632  21.8519802  65.2777863  49.8933907  22.2805462
  17.4740181  11.6299543   3.0124166  17.6406193  10.7357407   2.7143273
  18.2196598  11.8375225   3.5755899  30.3765335  28.1356430  83.5930557
  30.5777607  28.6130657  82.7881927  31.0928364  27.5072918  83.6842651
  82.1597137  40.5012169  60.6007729  82.7776947  41.1721382  60.3106117
  81.8021545  40.1383705  59.7903824  16.5423241  35.1897469  46.0330772
  16.8517323  35.9472466  46.5297585  16.2696743  35.5513840  45.1898041
  21.0925903  68.6839981  71.0294571  20.8229580  69.3183670  70.3653030
  21.1863880  67.8607330  70.5502243  61.1280441   9.2309952  57.1192055
  60.4353218   9.4445486  57.7443123  60.6652641   8.8708982  56.3626366
  50.2948990  13.9137688  20.6402721  49.9166641  13.2019386  21.1564770
  51.0739174  14.1771574  21.1301575  32.3970757  59.7375526  77.7599182
  31.5923405  59.4539986  78.1937790  32.1892090  60.6050949  77.4129410
  46.0122108  34.5727005  87.7136383  46.0195885  33.9886551  86.9552994
  45.4450569  35.2979851  87.4518509   5.3835440   0.6875483  55.2047539
   4.9257650   0.8559065  54.3811493   5.0563726  -0.1653726  55.4906158
  54.6005898  45.5497818  83.9565811  54.3280678  44.6498795  83.7773056
  53.8725891  46.0871925  83.6444397  71.5722733   9.6061602  23.6019154
  71.9072189  10.2912111  23.0233383  70.9740372   9.0998602  23.0523682
  83.9323044  16.1145058  47.3250046  83.6122513  16.2947731  46.4410896
  84.6782150  16.7042866  47.4345741  66.8437195  51.6230621  71.4558563
  67.3463745  51.5935936  70.6417923  65.9786758  51.9365959  71.1919937
  62.4467735  49.8958244  63.6287537  62.6746788  50.5809784  64.2571259
  61.6694221  49.4789085  64.0004349  23.9503231  16.2140408  70.0778275
  23.9133301  15.2626257  69.9794693  23.5461483  16.5532875  69.2792130
  80.9898148  18.4152050  41.0428467  80.6690750  18.2937336  40.1492004
  80.5869598  17.7038002  41.5406799  44.2016220  22.4274349  87.3413467
  44.4213333  21.5859909  86.9414291  45.0484543  22.8217430  87.5502167
  18.0536671  12.0034914  80.7340546  18.2713299  11.5184269  81.5300217
  17.1793175  11.6945095  80.4968262  62.7614441  48.5971794  27.6752186
  62.3702545  49.4440117  27.4605656  63.6713829  48.6740570  27.3882713
  77.5073242  66.7818451   8.0601711  78.1881256  66.1425629   7.8502703
  77.3187637  66.6353149   8.9871054  56.9479294  18.4917641  52.9474869
  56.7421913  17.7259159  53.4835625  56.2217598  18.5516949  52.3267441
  84.2498093   9.6060209  58.1420403  83.8970261  10.0253534  58.9268570
  84.2409439   8.6707687  58.3456459  40.5494728  14.8879719   1.9846430
  40.2964439  14.5406675   1.1293136  41.4638863  14.6249266   2.0889840
  64.3473282   0.3018283  83.9124069  65.2802124   0.3971979  84.1044006
  64.2818680   0.4404054  82.9675522  37.0885239  40.5207787  55.0097847
  37.4025116  39.8220711  55.5837669  37.0015030  40.1050987  54.1519585
  84.0914917  36.8498650  12.7148657  84.1364746  37.3675690  13.5187263
  83.1986160  36.9804001  12.3955612  53.1225510  45.8578033  75.3785858
  53.4933815  46.4002724  76.0746002  53.4400597  46.2572289  74.5687180
  82.7471771  37.6355095  71.8557663  82.0612030  38.2532654  72.1088638
  83.4771652  37.8348312  72.4419556  39.7453995  14.3758612  78.7860413
  40.6742249  14.5118494  78.5988922  39.4509583  15.2086411  79.1548462
  30.3892860  13.5708466   7.3524265  29.5600071  14.0204344   7.5148978
  30.5763893  13.7397299   6.4290075  53.2561035  40.6537857   2.0718582
  53.0636177  41.3258820   1.4180468  54.2094955  40.6675758   2.1560013
  54.7030067   8.6358166  62.5823555  54.9861908   7.7790666  62.2629509
  55.1022873   9.2609367  61.9773483  63.3529968  22.9680576  15.3813257
  63.7666245  22.2086716  15.7917852  63.4555702  23.6720028  16.0217724
  37.8162689   7.3424416  44.3471451  38.7163811   7.3264799  44.6723824
  37.5974884   6.4218659  44.2025490   3.6298981  52.9492493  60.2395973
   2.6806521  52.8550606  60.3189240   3.8812547  53.4842072  60.9925079
  76.5596237  40.0590439  63.5453224  76.9492035  39.2120781  63.3282700
  75.7538071  39.8392677  64.0128555  43.5385666  12.8225746  75.0097351
  43.9413605  13.5537071  75.4781723  44.2076492  12.5397921  74.3863602
  81.5724869  11.4306202   8.3178797  82.4672394  11.6482277   8.5792112
  81.0298996  11.7338820   9.0457983  82.8784866  64.5518265  74.2733002
  82.1598892  64.2481766  74.8279495  83.4005508  65.1150513  74.8446732
  79.9198914  37.1377983  16.7663422  80.1414642  36.3048935  17.1827679
  80.7630005  37.5034981  16.4986477  65.8892288   8.5837374  12.7831287
  64.9450989   8.6949005  12.8948879  66.2754288   9.0671644  13.5134592
  14.3284302  13.6359472  75.1433334  14.8651199  14.3579988  75.4701920
  13.5860872  13.5972204  75.7463684   3.7395024   9.4811602   3.7992089
   4.0041738  10.2684584   3.3234541   2.8725839   9.6912184   4.1464257
  41.8095016  60.9586983  26.0277309  41.4919395  60.0742836  26.2099266
  41.4520950  61.1685066  25.1649017  71.3803482  43.0117226  29.1256790
  71.8240128  42.6607552  28.3535290  70.8893280  42.2693710  29.4778748
  67.8977814  65.3325043  77.5043564  67.7397461  65.9584579  78.2110672
  67.6704025  65.8097687  76.7063904  53.7243958   6.8417039   0.4190319
  53.6453438   6.3899560  -0.4211503  52.8585548   7.2211037   0.5693755
  65.1142426  14.4691401   5.3996334  65.1850586  14.0747299   4.5303473
  64.2539902  14.1951256   5.7176151   4.9344501  43.7941551  30.8261223
   4.0006542  43.7813225  31.0361061   5.1478362  44.7232895  30.7400360
  40.0844879   4.5680928  80.8061523  39.4483337   5.0471740  81.3372040
  40.0725174   3.6794770  81.1617508  35.1667862  23.3487816  76.1360092
  35.1668739  22.6484795  75.4834671  34.6592216  22.9953651  76.8665619
  52.7862740  45.0029793  50.0613060  53.0184517  45.7613983  49.5254707
  51.8902893  44.7904015  49.8000526   7.6885648  64.9450150   6.1889486
   7.7038207  64.1292953   6.6895461   7.5784106  65.6292114   6.8492289
  75.7905731  71.7349472  60.5127983  76.7365799  71.8806229  60.5223045
  75.6390991  71.1955185  59.7367172  51.0707512  61.2570839  64.4902344
  50.9313316  62.1898804  64.3268661  51.6980667  60.9875717  63.8193550
  52.6914825  21.5427437  79.1223221  52.6826210  22.4823818  78.9400177
  53.1031723  21.4696922  79.9833755  55.4507561  61.7729416   9.4297667
  55.2357407  61.1241188  10.0998640  54.7191010  61.7326965   8.8139009
  45.0913887   6.7785521  57.1076775  45.3182526   5.8698378  57.3051682
  44.6612015   7.0959997  57.9016533   9.7146893  61.6209641  50.4917030
  10.2109413  60.9688263  49.9970474   8.8100710  61.5043716  50.2013512
  36.8208961  39.1894875  77.5000610  36.6002121  39.8977318  78.1049805
  36.0492363  38.6231232  77.5026550  66.1640549  19.5749607  82.2327042
  66.0213242  19.6768456  81.2917023  67.0062561  20.0000496  82.3946152
   2.5887206  52.3159790  43.0478401   1.6450624  52.2017479  42.9351768
   2.7847953  53.1410332  42.6039085  63.1883163   4.2673235  27.1482868
  63.3118248   4.4788795  26.2229652  64.0693893   4.2994027  27.5209866
  21.0452480  19.9455872   1.0104405  20.2596970  20.4586105   1.2000364
  21.6065140  20.5414753   0.5143265  39.4391708  26.7372036  76.7854614
  38.5975876  26.2891598  76.8704605  40.0867691  26.0815983  77.0443649
  82.6403961  33.8498268  30.3488655  82.9910965  34.7190247  30.1546154
  82.2361374  33.5659447  29.5289783  43.0786400  42.3783493  33.7506752
  42.3995438  42.3268929  34.4232903  42.8879738  41.6484680  33.1614838
  21.9345493   3.9952435  60.1443405  21.6619778   4.5281162  59.3973579
  22.8113937   3.6890047  59.9128380   2.6040194  33.9826126  40.9781799
   3.2559030  34.6346245  40.7209663   1.7750723  34.3298111  40.6487427
  47.2821770  45.3960457  89.2004700  47.2789116  45.3669777  88.2437210
  48.1904831  45.2153702  89.4424820  71.5852737  50.3889008  64.9103088
  71.1105881  50.6170502  64.1110229  70.9590454  50.5520439  65.6156082
  16.3773861  56.5221405  42.4231453  16.6807022  56.7928467  41.5565720
  15.9258785  57.2915802  42.7700348  35.2499352  52.3611488  37.2326736
  34.9507370  53.0184479  36.6044464  36.1299553  52.1293182  36.9359360
  84.3339386  40.2408867  86.8597412  83.8208847  39.8659325  86.1439133
  83.6852036  40.6586761  87.4261551  33.3109550  55.8283043  64.4132233
  33.9962158  56.2953682  64.8912430  32.6529655  55.6230583  65.0774155
  68.1672058  24.2060909  41.8050308  68.3985443  25.0714817  42.1423912
  68.5786209  23.5935097  42.4147148  83.0336761  22.8678398  20.1357231
  83.2746048  21.9497433  20.2593460  83.6557999  23.3537159  20.6771240
  51.9832458  29.6982021  77.7861710  52.2881851  28.8065414  77.6182861
  52.2525406  29.8778114  78.6869736  38.0604973  34.8909264  25.7009335
  39.0034943  35.0551949  25.7019501  37.7468452  35.3008156  24.8948040
  33.2598457  35.9148254  80.3457108  32.7847977  35.1345100  80.0599289
  33.8817520  35.5913239  80.9974823  31.0809937  24.0084743  76.8399811
  31.1032658  23.2199306  76.2978210  30.3667412  23.8539810  77.4582138
  10.6590261  59.8589630  24.7696323  10.2477741  59.9283905  23.9080753
  10.0918617  60.3693733  25.3475914  84.5949478  48.1414261  23.1704254
  84.5638123  48.8161354  22.4921684  84.8871155  48.6044235  23.9556026
   7.5625720  25.8531036   6.6546569   8.2099066  26.3740749   6.1794939
   6.7357578  26.3155746   6.5177960  80.8671265  51.2547340  73.2093124
  80.5519638  50.3955917  72.9286346  81.7463837  51.3207436  72.8367767
  81.3747330  70.0971146  35.7367516  80.6082535  69.5587234  35.5395737
  81.4228134  70.7200623  35.0115929  53.3558578  39.9598808  15.7410889
  52.5238647  39.5112305  15.8918581  53.3866348  40.0955505  14.7940531
  66.4662628  58.6832428  71.0850754  66.4942703  58.2726746  71.9492950
  65.5371399  58.8543587  70.9311981   0.8486983  61.7813683  69.7270508
  -0.0149324  61.3767929  69.6452484   1.1944594  61.7904205  68.8345261
  62.7353439  68.2540970  69.1707230  62.7594604  67.9519730  70.0786667
  62.4391899  67.4922714  68.6725845  19.0285416  49.3360558  12.1010599
  19.9196587  49.4431343  11.7683764  18.5319958  49.0037956  11.3532124
  48.5542488   2.7989304  69.7806244  49.1019058   3.3702517  70.3190384
  47.6716843   3.1582377  69.8712616  62.5570679  50.8857727  43.8808365
  61.9335022  51.5390053  43.5635262  62.8894653  50.4665489  43.0871124
  55.1045914   2.4380307  48.3161850  55.0451813   3.3393445  48.6329460
  54.2041512   2.2030933  48.0920258  85.3977966  38.6005592  55.9094620
  84.5217285  38.5913963  56.2950096  85.4078293  37.8466797  55.3197174
  75.9828339  42.6547394  55.4465103  76.7996216  42.9089775  55.8759804
  75.4535370  43.4522820  55.4472008   0.4352283  35.4403801  40.1616898
   0.4869256  36.2337112  39.6286011   0.3404632  35.7604103  41.0588150
  60.4559669  47.7124786  53.7685890  60.8056107  47.4642715  52.9127998
  60.6158524  46.9489288  54.3232613  51.3756752  12.0707493   8.1476870
  51.7460556  11.3723469   7.6079807  50.4610710  11.8174877   8.2725439
  44.0659142  28.1551399   5.1486955  43.8678169  27.5569458   4.4281716
  44.3668365  28.9559498   4.7192998  43.8382416  62.1736069  64.4021378
  44.5353699  61.7310867  63.9179726  43.6846504  61.6155815  65.1645355
  62.5919456  14.5628643  83.9427109  61.8872261  14.8920736  83.3848343
  63.3916359  14.9129639  83.5500793  44.0118446  33.6139946   0.6989524
  44.5776253  33.8387451  -0.0397023  43.5031700  34.4084015   0.8614193
  21.1958332  53.7595253   2.6475697  21.0397720  53.7808838   3.5917203
  21.7207222  54.5408974   2.4738314  84.7387695   7.4710135  39.0862122
  85.3322220   8.1125898  39.4766350  83.9215164   7.9510450  38.9524117
  77.9767914  49.8544922  82.5160675  78.5070877  49.0583305  82.5499573
  77.4011536  49.7914810  83.2782364  69.3769226  47.2698326  21.2059307
  69.9236603  47.9447975  21.6080914  68.7272644  47.7578697  20.6999702
  36.6902351  65.6953888  67.2476730  37.2301865  64.9118881  67.1437149
  37.3131256  66.4214859  67.2158356  67.4640884  22.4234276  69.5352325
  66.9606094  22.3741245  68.7226410  68.0924835  21.7041817  69.4716568
   8.4120665  43.5702629   4.1611218   8.8099051  42.8609428   4.6659222
   8.9605064  43.6453362   3.3802190  34.3327408  16.4932346   1.2178932
  35.2106781  16.1955605   0.9794660  34.4376221  17.4271450   1.3996681
  61.4382935  50.4602814   0.8103182  62.0837746  49.7587509   0.8965935
  61.0226326  50.5104866   1.6710948  85.9477692  55.0493431  55.5522270
  85.3135300  54.5682182  55.0207176  85.5253677  55.1389389  56.4065018
  72.0556488  57.4758835  67.0928421  71.8840942  57.2500534  68.0070648
  71.3936691  56.9925652  66.5984573  31.3914661  67.2406082  82.9769287
  30.8351173  66.5664825  83.3671265  32.1147690  67.3418884  83.5956421
  81.4402847  66.2502594  26.7296906  81.2873230  66.7807617  27.5116158
  81.8377609  66.8554840  26.1036320  15.7898092  11.3548317  66.9258118
  15.8164845  10.3986568  66.9611588  16.3585815  11.6369476  67.6421509
   0.0427292  23.1590691  17.9311943   0.1592544  22.7741470  18.7998066
   0.3045446  24.0736198  18.0374126  21.9094753  37.2593079   8.2740145
  22.2472973  37.9475441   7.7009177  21.0201607  37.0995979   7.9580345
  33.6266594  39.6872330  83.7602081  33.8484879  39.9798470  82.8762436
  33.9391365  40.3896332  84.3304901  78.5401077  49.1157379  27.9559231
  78.4397736  48.7246704  27.0880356  79.1696777  49.8252487  27.8275948
  27.7978077  63.6533661  49.1447792  26.9866753  64.0020676  49.5145187
  27.7958355  63.9546661  48.2362404  61.2693367  33.5421333  84.4721680
  60.7474937  33.8493423  85.2134781  61.0168724  32.6250420  84.3652344
   3.0117757  55.2160873  53.0340576   2.3705103  55.2974586  52.3280907
   2.4871755  55.0394020  53.8149605  55.0102654   4.9575691   7.9965119
  55.0913506   4.7995181   7.0559392  55.2360344   4.1196904   8.4005156
  33.0591965  60.0709991  34.4962540  33.1573677  60.2280083  35.4353714
  33.6342926  60.7157631  34.0842133   9.3481636  43.1247635  29.1866055
  10.1609221  43.3580284  29.6352062   8.6598940  43.3130608  29.8246193
  64.6395264  18.0965328  41.8839684  65.0011749  18.9647751  41.7062187
  63.7335663  18.1474514  41.5792007   4.2021174  28.7312374  32.5869370
   3.3277714  29.0692043  32.3932076   4.5263839  29.2945671  33.2896042
  37.2306290  35.3856430  11.6747217  36.7560539  34.5545006  11.6603661
  38.1504250  35.1348114  11.7601271  72.7779007  67.4639435  67.5473633
  71.9106216  67.6003723  67.9287338  73.3781662  67.5214233  68.2907410
  62.7141991  16.8772125  19.9827747  63.5031586  16.3368912  20.0254974
  62.4227715  16.8041210  19.0739536  50.6268806  24.7499638  57.6519547
  49.8733978  25.1803513  57.2478981  51.2695389  24.6796799  56.9460640
  29.7885284  67.0790634  10.6180897  30.3869629  67.6360855  11.1159182
  28.9808788  67.5892334  10.5576010  79.6142807  43.8149261  82.8151474
  80.1779022  43.8178368  83.5888138  79.5923386  42.8989143  82.5382538
  75.2912292  59.3423309  44.2655907  75.6582336  59.4211807  45.1461105
  75.0812683  60.2411957  44.0122375  13.7456808  25.8478317   3.5367665
  12.9171753  26.0037231   3.0834363  14.3255119  26.5409470   3.2211413
   2.3890557   7.8126535  34.5352249   2.4224732   8.6121902  34.0100060
   1.4603093   7.6963220  34.7355461  59.8653946  42.3983421  71.1793213
  60.1198463  41.6448593  70.6466370  60.6951180  42.7852898  71.4587173
  69.2700424  57.3506012  12.7098885  69.5860291  56.7287331  13.3653765
  69.8675461  57.2428589  11.9698801  38.7166748  35.5193863  19.1405125
  38.7251358  35.1561279  20.0260658  39.0666618  36.4045792  19.2413921
   4.6085896  27.0862331  87.7546844   3.9962161  27.1845722  88.4837723
   5.3216305  26.5560474  88.1106491  75.0058670   7.8877959  85.9957733
  75.8889771   7.9140577  86.3641052  75.1188354   8.1545391  85.0834656
  85.7747574   0.1462079  83.7948837  86.4626160   0.5531614  84.3216400
  86.2189407  -0.5594419  83.3247833  11.7499762  30.9296284  80.0123825
  11.5106134  31.6183167  80.6325760  10.9243450  30.4871864  79.8153763
  65.4476700  58.4850044   6.6127768  65.3065948  59.0712013   5.8693371
  65.5236664  57.6150627   6.2207885   1.9783535  69.1716232  37.9172707
   1.7874407  68.5459671  38.6160812   2.4152789  69.8991852  38.3599701
   5.7532954  67.5074387  27.7334690   5.2362723  67.8557739  28.4598160
   5.5731444  66.5673676  27.7404327  47.3390732  37.6418953  29.3449287
  46.6277428  37.4871178  28.7234135  47.8859329  36.8587341  29.2829475
  13.3984280  17.4455986  13.7364950  12.8239365  16.7631779  14.0836172
  12.9563379  17.7507248  12.9442282   9.2313528  10.3188314  21.3591366
  10.1083555   9.9423847  21.4325218   9.2350464  11.0555725  21.9702263
  60.3435326   8.1321726  22.9011078  60.4629555   8.1031351  21.9518299
  59.4359322   8.4121532  23.0198727  53.7061005  58.2781982  62.9137840
  53.6489754  58.5099449  63.8407478  53.5879745  57.3284721  62.8966179
  23.6442108  65.0632019  34.4229469  22.8835278  65.6188049  34.2529564
  23.2740536  64.2455902  34.7556915  43.6054153  53.6481552  20.9806252
  43.0119858  53.9082565  21.6851959  43.2991104  52.7802544  20.7176418
   8.4605036  35.2955475  64.9732590   7.7726102  35.5186195  64.3461380
   8.5362978  34.3430214  64.9168701   8.0009604  57.7418327  32.8537941
   7.4657879  58.3881454  33.3143425   7.3895144  57.0401459  32.6301880
  64.6079330  60.8875160  51.5809021  64.2191772  60.8981934  50.7062645
  63.8821564  61.0986366  52.1681900  12.5137262  48.0103531  58.4894257
  11.8671207  47.3783073  58.1753387  12.0520401  48.8488235  58.4825439
   0.3129462  16.7894459  71.1391068   1.1274558  17.1226006  71.5156860
   0.2107516  15.9181929  71.5221252  27.1236496  44.9851685  52.1753654
  26.6622066  44.1492577  52.2428513  27.2932129  45.2390709  53.0825653
  71.5648727  42.7565117  69.6433716  72.1811829  42.5153770  68.9518127
  70.9886627  43.4031677  69.2358780  64.5114975  11.9574356  11.3292332
  63.8517952  11.2993221  11.1103430  64.7933197  12.3047638  10.4829645
  79.9421463  15.9612589  36.0552216  80.8469925  16.0188637  36.3620872
  79.4188080  16.2765141  36.7920876  19.8109608  40.1096764  67.4800720
  19.5023232  39.4766273  66.8318253  19.8829155  40.9323578  66.9960861
   9.2992964  46.4587898  73.6866455   9.6216440  46.8919144  74.4770432
   8.5729465  47.0080795  73.3918152   8.1579924  52.2030106  19.8833580
   7.5764141  51.4428024  19.8923225   9.0207310  51.8421631  19.6791420
  65.8037796  24.9005089  69.4377594  66.3191071  25.6047935  69.0444870
  66.4555740  24.3001499  69.7996521  66.7970581  70.4879379  30.6366272
  66.4121704  71.3325195  30.4025841  66.2179565  70.1405640  31.3150120
  16.5563164  55.3346519  32.7231865  17.4793301  55.3054161  32.9750290
  16.5690975  55.3351593  31.7660732  45.3624420  61.7124939  41.0003052
  45.7697182  62.4384804  41.4728508  44.4660568  62.0058594  40.8370171
  40.6812172   1.0425231  53.7638931  40.5114479   0.1005722  53.7520714
  40.2535706   1.3729000  52.9738274  32.3919754  42.2660942  52.9487610
  31.5372181  41.9982414  52.6113091  32.8831749  42.5332909  52.1718674
  54.7389488  12.4711494  52.8720245  54.1402206  12.2940149  52.1465034
  55.3314705  13.1431265  52.5349846  23.6666832  44.2753258  44.0776825
  23.5989265  44.9749565  43.4279480  22.8285522  44.2954369  44.5395966
  50.0155411  40.8828926  26.1117992  49.3447456  40.3406906  25.6967335
  50.8221626  40.6654930  25.6445389  16.5541382   5.4407225  83.9125443
  17.0716553   6.1737146  83.5791779  15.7252626   5.8360023  84.1826401
  84.6152878  63.8205452  26.0626316  83.8429565  63.9506378  25.5123405
  84.7246094  64.6528549  26.5225697  44.7828598   6.8265133  31.1113338
  44.4188309   5.9412584  31.1049786  44.4494553   7.2167907  31.9192677
  71.0806656   4.6791697  75.7124557  71.7708206   4.0779357  75.9925232
  71.5133057   5.2699399  75.0959778  22.6085224   3.7012069  21.0206299
  23.3048840   3.0906525  21.2625732  23.0230198   4.3053641  20.4046612
  43.0686417  70.9247360  21.6691227  43.5560112  70.6027374  22.4274235
  43.5669441  71.6850433  21.3693714  25.4914932  39.3397369   5.7397094
  25.5947399  39.0397377   6.6427999  25.9498825  38.6831322   5.2153230
  62.1267662  31.3560123  51.9800224  62.5896072  30.6372986  51.5493736
  62.8001976  32.0199280  52.1281433  73.6738281  52.3992271  71.1339951
  74.2502823  52.7886009  70.4764786  73.7404099  52.9851151  71.8880081
  58.2715149   6.0595083  46.7845230  58.7533455   5.9038377  45.9722214
  58.7685738   5.5868521  47.4521751  45.8744392   0.4656836   2.7560658
  46.3195343   1.0330621   2.1266205  45.1127090   0.9720892   3.0381258
  28.8659496  42.3883095  16.0974312  28.6101685  41.6568565  15.5354843
  28.0598240  42.8897743  16.2196083  78.1278076  42.7673149  53.4399986
  77.7671509  42.3406219  54.2172318  77.3647079  43.1296158  52.9898338
  34.1885109   0.5021365  51.0688477  35.0952759   0.8038827  51.1232567
  33.8844948   0.8099067  50.2149849  36.8997879   1.8872246  18.9243813
  37.0349998   2.4133790  18.1362743  36.3689232   1.1470892  18.6300755
  46.8944092  46.4700356  59.5116577  46.1754875  47.0966835  59.4298439
  47.6219444  46.9845009  59.8613014  59.5645370  33.9741821  18.8552170
  59.0741959  34.6016197  18.3240700  60.3881073  34.4200096  19.0532036
   4.8598647  70.5826492  84.6119385   4.1839952  70.1445389  85.1291351
   5.2162194  69.8938446  84.0508728  65.8185272  36.1678391  66.3165970
  66.6274338  35.8534203  65.9128189  66.0463409  37.0270271  66.6717377
  13.1348629  36.5371971  23.3210087  12.2131834  36.7954903  23.3258686
  13.4104280  36.6500206  22.4113026  84.2636490  49.9339218  73.4912033
  83.6083679  50.0455704  74.1799393  84.8439026  49.2480659  73.8215714
  15.7135725  42.7613983   6.8463254  16.0740967  43.6448174   6.9226627
  16.3897686  42.2658463   6.3843536  45.1894379  12.9123058  80.7161102
  45.0361404  13.8035927  80.4025192  44.9449387  12.3534832  79.9784317
  23.8753147  -0.1252454  26.8838387  23.5958977   0.7360700  26.5735264
  24.7353096   0.0284927  27.2749958   0.6624019  65.6128159  43.2717552
   0.1059924  65.6678314  42.4948273   0.0807399  65.8339767  43.9990692
  42.0099754  10.8397551  10.7752886  42.9398994  10.9966068  10.9392042
  41.9051628   9.8937111  10.8765211   1.6889902  62.4592781  50.8035278
   1.4777859  62.8599358  49.9602623   2.5290844  62.0241203  50.6582336
  24.5893078  61.7353973  31.9931889  24.0611992  61.2985535  32.6613960
  25.4920673  61.6258049  32.2919312  25.6157608  38.8434868  68.7421188
  26.5115337  38.9735794  69.0534058  25.5438099  39.4117126  67.9751968
  39.9587059  16.1402187  85.2366104  40.3581581  15.2769423  85.3434982
  40.1628838  16.6010246  86.0503616  13.1604891  66.3265228  15.6410446
  13.6248884  65.7481155  16.2460289  13.7428570  67.0786209  15.5341110
  82.2886505   7.3182712  59.6634254  82.3062057   7.0800967  60.5903549
  81.6574402   8.0360470  59.6124763  61.0644646  39.1825218  33.7881622
  60.8333664  39.9950752  34.2382545  60.3023338  38.9852142  33.2436829
  46.1192970   5.3264809  48.0622482  45.9361382   6.2574501  48.1886597
  45.5138817   5.0547843  47.3724022  15.0123329   8.0083408  58.8587799
  14.7018585   8.8919029  59.0566559  15.9652967   8.0688152  58.9253731
  59.9848785  28.8490562  61.4837646  59.5945663  29.7201195  61.5554428
  60.4939766  28.7477989  62.2880020   9.0778227  45.0586433  39.3445740
   8.7442875  44.2422028  38.9725456   8.3187447  45.4544029  39.7728386
  21.6623936  68.1646805  58.2629471  21.4831963  67.5750961  58.9954147
  21.0426579  67.8982315  57.5838585  61.6751137  53.0074921  71.0228348
  61.5821114  53.3863258  70.1487274  61.3535614  53.6879807  71.6142426
  37.8055878  49.4965439  36.5694618  36.9032593  49.2023582  36.6939087
  38.3283615  48.8982162  37.1032677  55.8374863  65.7504959  48.6405296
  55.9102364  64.7985458  48.7093124  56.7428741  66.0567551  48.5884323
  45.2847824  21.1130810  64.8823395  45.7535515  20.5768204  64.2428818
  44.3690338  20.8501892  64.7900162  72.3634949  17.4251385  79.1014862
  72.9745789  17.3434792  78.3692703  71.5167770  17.1678734  78.7366257
  76.3527908  34.0562439  85.4131775  75.4486847  34.3167381  85.5891418
  76.8303833  34.8826218  85.3408051  73.5813141  54.1953278  34.3385201
  73.4074554  53.6058502  33.6046791  74.2444992  53.7413788  34.8584633
  59.6231537   6.6977634  36.1781731  59.0143089   6.4560399  35.4802399
  59.1023598   7.2354441  36.7747536  55.5010185  50.0240479   9.0409794
  55.2596359  50.9441566   8.9343538  55.1409149  49.7791901   9.8933878
  59.7686653  13.7880535  32.0814133  60.6345024  13.4577999  32.3211784
  59.4314957  14.1823092  32.8858452  58.9869385   6.0715656  43.8333893
  58.2409172   5.5212436  43.5949974  58.9816055   6.7760763  43.1854172
   5.8764725  41.2712784  20.7594128   6.0545392  41.8749924  21.4805584
   5.0423212  40.8622513  20.9898911  59.1180725  60.0871925   5.7378416
  58.5413017  60.3125076   6.4677739  59.1146736  59.1302338   5.7164640
  66.4415512  43.6495018  23.2321606  66.6130371  43.5903015  24.1720123
  66.8795547  42.8840256  22.8600922  10.5921335  58.3800964  37.7225075
  10.0784655  58.0301857  38.4504776  10.1137323  58.1081619  36.9392967
  23.1135349  57.6774139  28.3344841  23.5611191  57.9715462  29.1278248
  23.8192520  57.5056953  27.7110195  59.9794388  31.1161327  55.8180199
  60.3796425  30.5537605  55.1548424  60.5234032  30.9934540  56.5960159
  10.8550797  50.2739639  25.5012245  11.1161919  50.4871140  24.6053352
  11.3928957  50.8450279  26.0497437  80.6644745  60.3831253  10.8980579
  80.5448990  59.5873642  11.4164162  81.3983078  60.8334198  11.3163271
  23.4756527   1.8714446  62.2079926  24.0736275   1.5814459  62.8968735
  22.9254646   1.1083056  62.0315170  48.0398254  17.1488438  83.7429657
  48.3095512  16.9085426  82.8565521  48.7201347  16.7824745  84.3079376
  54.7545929  57.9228439   5.9245954  54.7662354  57.0087891   5.6406903
  55.5321655  58.3088226   5.5213137  26.0923901   4.1056781  20.5885239
  25.3134975   4.6410065  20.4369202  26.7344074   4.4331455  19.9585934
  42.1314240   6.3952684  80.4975815  41.5212593   7.1209130  80.6293716
  41.6546516   5.6231260  80.8020782  19.9031639   5.4682875  81.9448929
  19.9079857   4.7486882  82.5760727  19.1299000   5.9834476  82.1748962
  12.3813505  59.3481522  66.8816833  13.1281757  59.1700020  67.4533005
  11.6222878  59.3222084  67.4642487  73.1809158   5.3740754  31.5655155
  73.0438156   5.3324695  32.5119324  73.9168472   4.7837200  31.4039249
  75.0448303  43.5349197  42.2719765  75.1212845  43.4902344  43.2250710
  75.1456757  42.6286583  41.9808540  38.5667038  54.3323021  63.2858429
  38.7826004  53.5027580  62.8598366  37.6176071  54.3000298  63.4058609
  79.4814682  16.3405018  38.6469345  79.2317657  17.2616787  38.7198334
  80.4365768  16.3553867  38.5854301  68.6905365  45.9716721  63.3567886
  68.1270752  45.9672508  62.5830231  68.0900192  46.1080132  64.0896072
  22.6116486  10.3339958  48.9397774  21.8218632   9.8615503  49.2029572
  22.2858467  11.1316948  48.5229301  25.8613415   2.4441724  24.0940533
  24.9345131   2.6614425  24.1941357  25.8621902   1.6031766  23.6369343
   9.1434317  42.0553818  23.6737652   9.9343596  42.5283241  23.4149418
   8.7740402  42.5779419  24.3856030   0.8256606  30.7149372  73.0165863
   0.1993943  30.9362717  72.3273621   1.1192962  29.8304119  72.7983627
  17.9808521  68.4220428   6.0255270  18.5308151  68.0592499   5.3311558
  18.5710449  68.5180664   6.7729783  43.1052628  19.0574512  73.9964142
  43.2803116  18.8124695  74.9050217  43.0732994  20.0140438  74.0081711
  50.3731194  16.4522820  78.3624802  50.9114876  16.2857876  77.5887451
  49.8929863  17.2532482  78.1523514  63.5023766  -0.0415494  25.6663418
  64.1954880  -0.6054742  25.3230877  63.4420776   0.6752605  25.0348511
  62.8796730   7.2758522  69.6040649  62.0712967   7.5573816  70.0324402
  63.5177917   7.9533267  69.8278198  25.1273365  43.0750084  71.8095322
  24.8353138  43.5534859  72.5854340  25.2519226  43.7514229  71.1438217
  80.4888000  24.0980167  20.5975342  81.3864212  23.8490658  20.3772564
  80.4888382  24.1748409  21.5516453  46.8701324  13.8532467  27.9939880
  46.6367722  13.3887129  28.7977200  47.1873398  13.1685390  27.4051037
  57.9153214  58.3541336  80.4721298  57.9299507  58.6216469  81.3910751
  58.8309288  58.3953056  80.1960831  30.0885601  55.1346970  79.3633957
  29.8596764  55.1206055  80.2927246  30.7476234  55.8249168  79.2894897
  73.9602737  15.7234602   2.4349720  74.6930618  16.3284492   2.3198862
  73.1824722  16.2804184   2.4024158  16.0569820  70.8793030  79.1413498
  15.3282118  70.2591248  79.1189423  15.9047871  71.4548950  78.3918381
  40.1969299  31.4573975  70.1608582  39.5166092  31.6731205  70.7987137
  39.7192192  31.0967960  69.4138718  33.9229050  41.6713791  21.0745354
  33.5695610  41.9555321  21.9175282  33.1795578  41.7227554  20.4736805
  46.5252495  27.0927448  43.1974182  47.2903175  27.2873344  43.7387466
  46.8364944  26.4424286  42.5677795  23.6126671  60.4986153   1.8618174
  23.0401325  61.2587509   1.9649191  23.5772324  60.0553513   2.7094572
  15.8957500  38.2029877  50.8646202  16.0967693  39.0275307  50.4219551
  16.5382633  37.5830421  50.5195465  28.2926712  46.2214127  22.3172779
  29.1293907  45.7570992  22.2939625  27.7107792  45.6418762  22.8089809
  -0.1225828  57.9646034  83.1629028   0.5660770  57.9182014  82.4997025
   0.3440422  57.9105988  83.9969101   7.9179802  58.6317978   6.0054269
   8.2289543  57.8971329   6.5343800   7.9589667  59.3852463   6.5943794
   2.8659482  40.2071800   9.8576508   2.1578975  40.4413605   9.2576056
   2.9400985  40.9588814  10.4455957  60.9940758  20.0494556  33.0813789
  60.4463654  20.1712837  33.8568802  61.7741737  20.5766373  33.2538872
  81.5189743   4.8578591  49.2136421  81.9783325   5.0293665  48.3915672
  80.7031021   4.4335141  48.9481010  82.1228714  16.6161423   3.8630702
  81.5896225  15.9878035   3.3761766  83.0179138  16.4511871   3.5665514
   2.9013805   5.1639366  15.0029469   3.8512046   5.2697229  14.9493265
   2.5828393   5.4177556  14.1367254  66.7229080  67.8834610  87.8071442
  66.0951080  67.2815247  87.4074173  66.7015381  68.6589584  87.2464447
  19.2060242  54.8337173  79.2307129  18.5840130  55.1376991  78.5697021
  19.8885345  54.3869972  78.7298584   9.3990536  47.8173828  88.1174850
   8.9662418  46.9685478  88.2090607   8.7408552  48.3789024  87.7079697
  40.0092316  55.1339378  44.3329391  40.0428658  54.2743607  43.9131393
  40.8330917  55.5537491  44.0854721  19.7509689  64.9953613  20.4819317
  19.4997501  65.8983078  20.2874966  18.9322128  64.5023117  20.4292240
   0.4094241  59.3915253  38.1330490   0.3874740  58.8008347  37.3801651
   0.5284441  58.8140869  38.8871269  39.3348808  65.7348099  57.4898186
  39.5484085  66.3802643  56.8160057  39.6681404  66.1169281  58.3017044
   0.7731532   7.8865867  47.4792061   1.1332048   7.4517274  48.2521858
   0.2042222   8.5705481  47.8324013  57.4887886  27.1662903  13.1169777
  58.3319054  27.6059837  13.2267790  57.1189690  27.1336918  13.9992495
   1.8644106  35.7469940  76.6136246   1.4712746  35.0899467  76.0391998
   2.5955148  35.2925415  77.0321884  42.1025467  29.9567909   0.6458281
  41.3506012  30.3310337   0.1867546  41.7944603  29.8250523   1.5424664
  76.3276978  19.8389797  50.0735283  76.0860519  19.7686234  49.1500092
  75.9507904  19.0585518  50.4798546  41.8011703  53.6676140  18.5893745
  40.9026337  53.5232124  18.8860321  42.1395874  52.7895432  18.4141731
  24.6359940  17.4450951   0.1870994  25.3932781  17.3677368   0.7674159
  24.7127094  18.3209648  -0.1913158  15.2886429  27.4609890  77.6041641
  15.7777805  27.5710354  78.4195633  14.7085543  26.7181473  77.7712402
  47.5496826  32.4687691  60.4398117  46.5929565  32.4474525  60.4185600
  47.8054733  32.6458206  59.5345726   2.2949445  67.0041504  35.7181206
   2.1425061  67.5098572  36.5164070   3.2412682  66.8611450  35.7022285
  21.7576237   4.5853958  69.4601212  21.3142929   4.0367599  70.1071854
  22.5767059   4.1252394  69.2768402   5.4033141  22.1756668  14.1803465
   4.8226953  21.9860134  13.4433622   4.8364229  22.5885830  14.8317804
  20.6682377  58.6938248  30.2314243  21.4867687  58.2330322  30.4155731
  20.6480179  58.7743530  29.2778320  77.1024933  35.5254745  44.1909142
  77.3398285  35.6986618  45.1019058  77.7654648  35.9882889  43.6785545
  56.7265091  64.8914871  16.0371342  56.3144951  64.1883316  16.5391750
  56.6463699  65.6639786  16.5966587  23.4092331  38.7115402  22.9695129
  24.1132469  38.3281250  22.4464550  23.8240318  38.9341278  23.8029575
  29.5523891  51.9363289  31.6591187  29.2960911  52.8381500  31.4660969
  29.0811272  51.7204056  32.4638062  55.9659576  18.9848747  18.7863750
  55.6008911  18.9971046  19.6711407  55.5848351  19.7521210  18.3593941
  71.9525833  67.0068207  12.9611597  72.8659973  67.0480042  12.6779623
  71.8562317  67.7417450  13.5668249  47.3229065  56.4506187  40.5736427
  46.9900131  57.2115746  40.0978699  48.0487518  56.7930298  41.0953064
  56.0086060  24.5012169  45.6732674  55.8088036  23.7262764  45.1481209
  55.9297981  25.2324982  45.0606918  28.1936512  18.1750317  10.5805826
  28.5164948  17.5751724   9.9081450  28.4390373  17.7614975  11.4082346
  24.1569023  41.2098122  33.9868774  24.8423634  40.5850868  33.7500420
  24.6278534  42.0206909  34.1789970  67.8271103  50.7798119  46.5033951
  67.4088974  50.1106033  45.9616547  68.7029800  50.8774490  46.1298180
  11.4176102  45.9026146  87.6913834  12.1777925  46.3062057  88.1102753
  10.8956261  46.6417427  87.3792114  11.1951637  33.5977440  22.1229286
  11.3584938  32.8361855  21.5665245  10.7921677  33.2357712  22.9121056
  68.5521927  48.9176788  73.4830704  68.6152344  49.3958588  72.6562653
  67.6636200  49.0919456  73.7933960  52.8384895  48.1598816  87.2829819
  53.4200287  47.4782867  86.9461212  52.2290535  48.3311157  86.5649948
  64.5862122  25.1519661  28.1112995  65.2483597  24.5962620  27.7002277
  64.1167831  24.5659885  28.7050209  48.4369507  32.3390236  33.7015305
  47.5859489  32.1481781  33.3070641  48.2320595  32.5953751  34.6007156
  42.6990166  70.0334702  43.4465408  42.2111359  69.8612747  42.6412163
  42.0520096  69.9327316  44.1447296  59.3878670   0.2741476  70.1763992
  60.1145821  -0.2701658  69.8733521  58.6838341   0.1037565  69.5506668
  36.7689514  47.3957787  59.7474785  36.8091011  47.5975113  58.8126411
  36.7121964  46.4409714  59.7842407   1.0323389  28.1463757  34.6443405
   1.4684831  27.3291225  34.8853951   0.6105856  28.4400158  35.4518852
  36.8248787  29.9015751  75.9631348  36.7672882  29.6200523  75.0500870
  36.9530334  30.8488865  75.9140549  80.8048019  67.5766830  62.3706398
  81.4063416  68.0700836  62.9282608  79.9705200  68.0391388  62.4502945
   8.4879971  55.5966835  57.0307541   9.4044266  55.3891563  56.8482132
   8.2854757  55.1063118  57.8274651  23.3170605  21.0415382  18.5139980
  24.1351280  21.0833931  18.0187759  23.4881306  20.4021683  19.2054977
  73.2730179  11.3953724  21.5981808  73.9255219  10.6992645  21.6750259
  73.2524338  11.6022816  20.6638374  78.7133789  53.3382835  48.8839645
  78.5838470  52.5054016  48.4303589  79.6202393  53.3065605  49.1886597
   9.7161474  54.8022881  15.4637251   9.6766119  55.5059814  16.1113987
  10.1314287  55.2028008  14.6999435  43.6943016  21.0237389  82.6487579
  44.2229233  20.2549248  82.8625641  44.0722885  21.7282200  83.1751251
  78.5252762  56.1859398  74.7609634  78.2923508  56.2336273  73.8337555
  79.2752151  55.5917892  74.7892685  66.6834946   9.5162134  88.0704803
  65.7701874   9.3380909  88.2949142  66.7164154   9.4336567  87.1174164
  71.6251602  22.7505112  18.0941010  70.8391342  22.5922928  18.6169357
  72.3309250  22.3375359  18.5916748  41.3315811  32.8549843  64.8911438
  41.2273941  32.3103752  64.1109009  41.5446281  32.2354164  65.5889816
  81.3814774  39.5980186  58.1960793  80.6894836  39.9028702  57.6091919
  82.0166168  39.1751175  57.6181602  75.8204956  17.3970280  24.4967384
  75.2381363  17.9885883  24.9733410  75.7474747  16.5633106  24.9612980
  68.2559280  53.7536659  72.6915741  69.1386490  53.7254257  72.3224716
  67.8634644  52.9182549  72.4380112  81.2001495  39.1300926  14.2507343
  80.9170609  39.9199677  13.7900925  81.1054001  38.4295311  13.6053925
  54.7114372  21.7832317  39.4835014  55.2844734  21.4397926  38.7979965
  54.6094017  22.7103004  39.2681808  62.6567001  31.3359070   5.8209543
  63.1276131  30.6171608   6.2427135  62.9225082  32.1153412   6.3088698
  54.0963326  27.7508755  27.0285549  53.3904495  28.3968449  27.0023136
  53.8367767  27.0864124  26.3903141  43.9724693  27.6406460  42.9589577
  44.8675499  27.3063869  43.0167160  43.8400040  28.1137638  43.7804451
  41.3521271  11.4543724   3.1490195  41.8740005  11.8639402   2.4589934
  41.9853592  11.2439547   3.8352935  30.3496456  61.2963791  80.0645981
  29.7984886  61.2675438  80.8466644  31.2444115  61.2401619  80.3999557
  35.2017250  69.1054688  33.0216408  35.4149513  70.0117645  33.2438698
  34.5400505  69.1768723  32.3336601   2.6402378  37.3512115   8.2536077
   2.9715779  36.7163315   7.6184907   1.7255051  37.1023483   8.3861351
   6.0997972  64.4499359  44.7837296   5.8883047  64.6156540  43.8650131
   7.0257168  64.6798096  44.8615875  85.4525757  57.4988136  30.4511642
  86.1305847  57.1288834  31.0165730  84.6328354  57.1475983  30.7988853
  58.8482590  46.2911263  35.3785057  58.1136703  45.7035179  35.5555077
  59.6208725  45.7274780  35.4185448  48.1719170   9.5385771   8.8687124
  48.8588448   8.8852034   9.0008621  48.5972023  10.2355471   8.3691168
  21.7485962  55.3851395  21.5455608  22.5593777  55.0559235  21.9334812
  21.7504940  56.3213120  21.7450924  74.3776093  17.2426891  87.5617599
  73.7105560  16.6197739  87.2732391  75.1371460  17.0523853  87.0112000
  79.4114990  51.5492401  69.5810089  80.0876083  52.0274391  70.0610428
  78.9335022  51.0677910  70.2562561   4.1703186  41.5255165   6.2551885
   3.7506576  42.0053978   6.9692149   4.9937181  41.9901848   6.1057601
  14.9408722  32.0972290  15.7249527  15.2855120  31.2116070  15.6103783
  15.6048250  32.5468521  16.2476768  32.3377266  57.3212128  23.8865891
  33.0891533  57.6545792  24.3769531  31.9503136  58.0985603  23.4842548
  72.6298752  58.8804092  52.0493431  72.9838486  59.7488937  52.2408333
  72.6794815  58.8063469  51.0963020  31.0208092  61.9799843  36.8863602
  30.8177891  61.0534286  36.7578697  30.2384281  62.3410416  37.3031921
  33.1389046   1.5958681  87.0480576  33.4716835   0.7513455  86.7442932
  33.7845535   2.2322528  86.7408371  20.3093052  54.6416969  67.1371689
  19.8462067  55.4785042  67.1761703  19.8864346  54.1025543  67.8055573
   8.6817522   1.1265552  80.7358856   8.7080050   1.9834483  81.1616516
   8.6279678   1.3251437  79.8010635  32.9493027  38.0459213   3.4846442
  32.2449074  38.5606804   3.8784521  32.9841652  37.2464447   4.0098605
   7.1261396  66.6271133  51.1671410   7.6162457  66.2331009  50.4454918
   6.9988756  65.9109955  51.7893982  53.6414719  61.5602226  76.5465775
  52.9238815  62.1831474  76.4314270  54.3639412  62.0874748  76.8875656
  78.8480682  56.9459305  45.5636559  79.6214752  56.5340691  45.1783867
  78.5206833  56.3011551  46.1908035  76.4128876  46.9640121  36.3955994
  77.2457275  46.5272026  36.2172508  75.9388733  46.3542252  36.9610176
  34.4951668  64.4621887   7.1216464  34.5244484  65.4167709   7.1860547
  35.2504349  64.2354584   6.5790629   0.2503198  47.4308052  34.7068939
  -0.3894096  48.1428299  34.7073593   0.8392742  47.6375008  35.4325943
  10.6925802  30.2107372   5.4441986   9.9307375  29.6493835   5.3002949
  11.3118362  29.9538593   4.7609949  10.1439571  61.4157677  37.6166077
  10.4044180  60.5033188  37.7424049   9.6276503  61.6268883  38.3944817
  85.6046600  53.7181816  69.3365555  85.0694199  54.3914795  69.7565842
  85.0592575  52.9318085  69.3562775  27.4019737  55.0459862  16.2635250
  27.9908085  54.2916832  16.2404404  27.8403625  55.7084846  15.7295408
  28.8995819   3.8645148  68.5280380  29.6565189   4.4394412  68.6408920
  28.1479912   4.4095421  68.7610397  50.2495079  17.6793194   2.4816260
  50.1579819  17.3974056   3.3917794  50.5438576  16.8960800   2.0167313
  35.7759972  17.6715755  86.1797180  35.3839302  18.4513226  86.5727997
  36.6198845  17.9719677  85.8423004  55.3199997  15.7897320  43.2037621
  56.0032501  15.2975740  43.6589317  55.4260788  15.5511360  42.2828636
  42.0085182  67.2045822  49.1681557  42.3611984  67.7994232  49.8299866
  41.0767708  67.1388626  49.3773384  56.4732246  50.9079285  52.8842964
  57.0999336  51.1867981  53.5519028  56.7931099  50.0524025  52.5979729
  77.7924042  11.8515863  27.4129391  78.1324539  12.7217684  27.2046566
  77.4520416  11.9343510  28.3037453  58.6032867  53.4369926  43.8083153
  58.6017456  54.3635101  44.0487175  57.8049507  53.3219566  43.2928925
  69.9153366   9.4449100  74.1398621  70.0799332   9.0661812  75.0034027
  69.1229782   9.0046711  73.8323288  35.3716850  71.1349335  18.8157368
  36.1082039  70.7192764  19.2640743  35.2940674  70.6578217  17.9895573
  47.1131172  21.6531391  83.0082169  46.4002380  22.1193199  83.4449158
  47.5059853  22.3054371  82.4282227  69.3716583  69.7817535  30.5863934
  68.5054474  70.1820374  30.6617432  69.6548004  69.9893417  29.6959057
  59.6952896   9.6477356  59.8476143  59.3915329  10.1545563  60.6006699
  60.1421928   8.8931961  60.2312546  17.4232273   8.2801237  24.0258617
  18.0862255   8.4586887  24.6927795  17.8232212   7.6183939  23.4616356
  81.5579529  37.0270653  43.3788223  81.3019638  37.3030014  44.2589149
  81.2937927  37.7531776  42.8138351  15.2428398   8.6761322  75.9906464
  15.8151169   8.7700872  75.2291336  14.3617544   8.8264389  75.6481171
  54.3319740  20.5819759  32.7296677  53.4892578  20.7930126  33.1315651
  54.5108719  19.6832428  33.0062675  49.8070602  60.1347084  35.8962631
  50.1992149  60.2599335  35.0321083  49.6735191  61.0220184  36.2295456
  11.6148300  50.0823593  74.7010269  10.8895760  49.6903000  74.2146835
  12.3391838  50.1029587  74.0756302   8.4276991  41.8951683  16.2528210
   8.8047819  42.6721573  15.8401127   7.6107249  41.7441025  15.7774630
   3.3698604  70.8916092   4.5653419   2.8210475  70.5220566   5.2570567
   2.8956709  70.7011948   3.7559481  42.8491783  62.1365814  46.2792206
  42.4364128  62.7324028  46.9044037  43.2779808  61.4768791  46.8243370
  52.8772736   2.2911642  56.0168800  53.7626152   2.0673735  55.7299652
  53.0069695   2.9296274  56.7181473  66.1515121  52.5199432  62.4550209
  66.6398544  52.1123657  61.7397346  66.0562897  51.8251038  63.1064491
  -0.0153472  39.1911812  39.0818710   0.0219415  38.3766594  38.5804787
   0.6606926  39.0910416  39.7520752  57.6787796  22.1728611  28.7363205
  57.2444992  22.9990044  28.5239010  56.9989319  21.6459789  29.1563587
  10.8150940  26.9733410  22.5880241  11.3228693  27.3381424  23.3128109
   9.9077730  27.1979275  22.7943268  85.7163162  32.6435814  45.8731232
  84.9734573  32.1264801  46.1845741  85.3178177  33.3814507  45.4116249
  36.7344704  53.9029770   1.9802512  36.3377953  53.5313835   1.1923424
  36.9650154  53.1424675   2.5138285  47.0326385  37.7799530  23.8822384
  47.9706497  37.9474678  23.9733658  46.6471329  38.6451378  23.7441444
  39.6894417  16.5130405  71.7632980  39.4092026  17.1853352  71.1422348
  39.9806175  17.0035114  72.5319901  85.0143967  61.8196449  37.7921410
  84.5092239  62.0855484  38.5604668  85.8600082  62.2552567  37.8989792
  36.1011696  63.8522186  44.3082352  35.6044922  64.4930496  43.7994270
  35.5923615  63.7373505  45.1108246  23.5301895  53.3242149  58.8972168
  22.7012272  53.5749931  59.3048515  23.3480339  53.3352547  57.9575729
  28.6824245  34.5055313  52.1154137  29.6226254  34.6600227  52.2069778
  28.4365768  34.9862099  51.3250084  46.7849350  58.1307831  83.6746140
  47.4389267  58.8282280  83.7203979  47.2447853  57.3977203  83.2654877
  40.1924934  33.5845490  45.9008713  39.4237022  34.1403084  46.0286331
  40.4788589  33.7735825  45.0072899  64.3759003  67.3501587  22.9808350
  64.1475220  67.5513763  22.0733185  63.5831223  67.5521774  23.4777546
  37.2287483  45.7517891  19.6891747  36.8897858  46.6419373  19.7839088
  36.5164490  45.1904182  19.9953194   4.4618411  48.1720200  71.7912598
   4.4806275  49.0601196  72.1478577   3.9546254  47.6688309  72.4282532
  68.5347900  10.3908453  18.7184677  69.0022354   9.5681534  18.8630543
  68.8649826  10.9768219  19.3995228   8.3102007  31.3514881  82.8598480
   7.6298027  31.3721352  83.5327988   9.0038776  30.8104630  83.2371216
  53.6883812  65.4709091   9.3006153  54.4348450  65.2621765   9.8622704
  54.0540886  65.4979706   8.4164438  26.8782578   1.1884353  78.8900299
  26.2365665   1.7090908  78.4069366  27.0947628   0.4669439  78.2994308
  74.2794724  49.5848083  58.6028519  75.0791626  49.1184235  58.8461990
  74.2238846  50.3073540  59.2282066  50.3848267  29.9716530  74.8946609
  51.1008797  30.0253105  75.5276108  50.6446800  30.5630951  74.1883316
  80.1175232  70.7138443  25.3363400  79.1721191  70.7574234  25.4796715
  80.2228317  70.0846939  24.6226826  18.7992420  69.9517746  76.4810638
  19.0841045  70.0208435  75.5698471  19.1436062  69.1089172  76.7764282
  30.2737408  58.4027939  42.8668327  30.5300179  58.2121849  41.9644928
  29.3386345  58.2007179  42.8980103  36.0582848   0.8539636   8.3350468
  36.5718384   1.5561824   7.9358187  36.3997154   0.7846490   9.2265911
  64.6419754  65.9604797  31.8401222  63.8116913  66.0400620  32.3097191
  64.4553299  66.2991791  30.9645195  21.3051414  38.9215164  21.5629311
  20.9625168  39.7731323  21.8342075  22.1453495  38.8462524  22.0152779
  39.8854332  51.3148880  15.8654623  39.9823036  50.4131279  15.5593948
  40.7130699  51.5086479  16.3055859  71.5310364  18.2210369   3.6731761
  71.6516571  17.4123859   4.1709380  72.2916489  18.2611504   3.0934441
  72.8492889  28.5573330   3.0945735  72.1742172  28.2077560   2.5129271
  72.4262161  28.6035919   3.9519539  58.0707741  23.2286377  58.3631706
  57.2267036  22.9647007  58.7293854  57.9538651  24.1500549  58.1317558
  83.5616608  30.8362312  50.6635551  83.8790817  30.2351036  51.3374443
  83.2874756  30.2668705  49.9446106   7.0277309  69.8586426  14.1120539
   6.4458175  70.6133118  14.2019758   7.7788844  70.1924973  13.6216030
  58.8933563  14.3756971  61.5964394  59.5434456  14.9942102  61.9296951
  58.3926773  14.1147976  62.3694115  39.6005707  39.3818855  58.0832825
  39.4158287  38.6491165  58.6707802  39.0222626  39.2397308  57.3338928
  40.2810631  17.2356892  64.0047760  40.5152397  17.6646976  63.1817665
  40.7246017  16.3882599  63.9678078  53.3703957   4.9957075  54.1550636
  53.3592529   5.9493623  54.0735130  53.7833595   4.8326473  55.0030670
  58.4971390  49.8215752  22.5101013  59.2866211  50.1174850  22.0569096
  57.9095078  50.5767632  22.4854050  19.0877666  62.6728401  18.6722279
  19.4737511  62.3035164  19.4664860  19.2549610  63.6129265  18.7394638
  60.8664093  42.9981689  13.4826155  60.1689034  42.5874710  13.9935398
  60.4744835  43.8043365  13.1468754  66.5173264  46.0845566  74.8307953
  66.9896011  45.3840027  75.2806931  66.5076828  46.8078766  75.4576492
  58.3291359  11.2853146  76.8197021  58.8753586  10.8379583  76.1733704
  58.9290390  11.4969006  77.5349503  31.7483234  25.6282997   4.3733850
  32.5314636  25.6446609   4.9235249  31.8331318  26.3996563   3.8129840
  54.0209351  13.6020164  46.9994431  53.3183479  13.9010868  47.5766449
  53.7364388  13.8595238  46.1225281  62.2238541  64.6792679  45.2826271
  62.1384659  65.1632385  44.4612160  62.0522346  63.7685776  45.0430069
  30.3339729  65.1970215   7.7824559  30.2790089  66.1505966   7.8449254
  30.8178005  64.9332123   8.5651112  14.1827307  26.9682922   0.0199521
  14.0336819  26.0725136   0.3226073  13.3045883  27.3278141  -0.1059153
  72.5919266  20.3851967   0.4901883  71.6995544  20.4682426   0.1540217
  73.1502228  20.5368538  -0.2723955  16.4120064  50.3104057  83.5546494
  15.8804588  49.8640404  82.8955231  16.8173161  49.6022797  84.0551682
  68.3959961  63.4271393  61.3418961  68.0729599  62.5706482  61.0620651
  68.7621536  63.2722321  62.2126236  32.5167046  38.0700417  12.0701723
  32.5485840  38.7303047  12.7624674  33.3125610  37.5531502  12.1953373
  75.2876816  42.5636444  21.1970043  74.3940125  42.4053574  21.5012035
  75.8205414  41.9320755  21.6801338  62.4488106   9.7434607  10.5879755
  62.4199944   9.0886707   9.8903713  61.7638741  10.3706570  10.3562021
  55.9403343  47.1517181   4.6007333  56.2223473  47.2111664   5.5135131
  55.1333466  46.6379051   4.6323557  86.2332916  63.5132141   8.0504427
  85.9059906  64.4009628   8.1953907  85.4472275  62.9916344   7.8882809
  14.8850136  46.8077469  64.5469589  14.6872511  46.9822426  65.4671097
  14.6325846  45.8936386  64.4169006   3.8016250   3.4160471  11.7220488
   4.6936269   3.2965055  11.3960514   3.7593849   4.3392920  11.9711800
   5.2221618   6.1134572  76.3074722   5.5310860   6.0842819  75.4019623
   5.8368492   6.6975741  76.7515411  84.0985413   5.8454852  67.2668686
  83.6868896   6.2076650  68.0514755  83.7421951   4.9598784  67.1965179
  40.7176743  67.3967285  35.5671654  39.8904305  67.2230759  36.0163231
  40.4628410  67.6076355  34.6689377  49.4236679  61.8380585  41.2067719
  50.2590752  61.5062408  40.8778038  49.1126556  61.1559219  41.8019142
  70.6132584  67.2751694  41.1856995  71.1519547  67.4286728  41.9618912
  70.5369415  66.3225479  41.1316910  58.4888268  26.8602142   0.3026405
  57.8218765  27.1404686  -0.3241511  58.0824013  26.1345444   0.7764063
   4.6519775  15.5018482  57.8426094   3.8110211  15.1317568  58.1110420
   4.8356142  16.1774712  58.4953308  26.3200302   5.0820217  45.1415253
  25.8238773   5.4656725  45.8646278  27.2309685   5.3079200  45.3296585
  61.2625542  24.4376392  83.6727982  60.5546722  23.8008251  83.7707825
  61.4409485  24.7365475  84.5644608  10.2631693  12.9626741  88.7905807
  10.6236677  12.1078215  89.0261612  10.1849918  13.4274845  89.6236877
  65.1833801  41.8790855  29.6762104  65.2421570  42.5259285  30.3793259
  66.0565262  41.4888992  29.6361122  70.2416687  20.7570496  88.4411850
  70.2239227  20.8079929  87.4855042  69.3207321  20.7907772  88.6999741
   8.0437670  60.6365585  63.6395836   8.1999092  60.0225029  62.9220963
   8.3845596  60.1905937  64.4149551  24.9535789  65.1910477  84.3426819
  25.1800117  65.7815018  83.6241226  25.7852497  64.7889175  84.5933762
  22.6820221  20.1386604  21.7769299  21.8875465  20.2028408  21.2469101
  22.6681080  20.9230728  22.3253231  70.5917282  47.8481636  62.6795311
  70.4782791  48.7834473  62.5104027  69.8255310  47.6039886  63.1987190
  48.1166000  42.7212067  19.7656193  47.1688194  42.5892258  19.7885075
  48.3181725  42.8500175  18.8387928  83.0991135  39.8599052  83.8154144
  83.5286179  40.7140961  83.8612900  82.4457016  39.9572563  83.1227264
  75.9891129  14.9299717  25.8398514  75.8086929  15.0328140  26.7742519
  75.2519913  14.4169674  25.5086288  85.0585709  37.8027840  73.9965820
  85.7484055  37.8484039  74.6586075  85.1163635  36.9118347  73.6514664
  36.1807480  25.1708622  85.6429977  37.0705223  25.2306538  85.9907913
  35.6271400  25.5240784  86.3394089  40.9013252  58.1337280  46.6494560
  41.4635925  57.3624306  46.5774498  40.1976624  57.9767914  46.0198021
  14.6536531  26.2762165  74.4627686  14.2966375  26.2621574  75.3507843
  15.4634466  25.7693233  74.5221405  59.5016747  30.6665096  45.2880898
  59.9514656  30.8836079  44.4715195  59.3623428  29.7206936  45.2406464
  73.5604477  25.3107891  37.8843689  72.8490219  24.6704540  37.8757286
  74.2801666  24.8753624  37.4275970  45.3950958  30.2717152  23.3367252
  45.0455208  29.8126926  22.5729675  44.6686821  30.2875500  23.9598656
  28.4649296  66.9618912  13.8819218  28.9149342  66.2614822  13.4095249
  28.7671070  67.7669525  13.4614544  15.7388506  58.9378319  43.5303154
  16.2677593  59.7307396  43.4421005  16.0156155  58.5567894  44.3636475
  68.4518509  25.4237518  51.9335403  68.4063187  24.6388779  52.4795532
  69.2444077  25.8735790  52.2263680  17.0377884  31.1760426  77.7503967
  16.2495575  31.6882744  77.9307938  17.7475605  31.6808567  78.1474075
  11.3407135  40.6405182  76.8399734  11.6029387  41.0276184  76.0047302
  12.1663208  40.4260368  77.2742538  13.2383080  59.3819199  53.6434784
  13.8427057  59.2721024  54.3775597  12.6310959  58.6460457  53.7210236
  35.2654114  69.2961349  50.7750854  34.3218727  69.3865356  50.6416817
  35.5671082  70.1850815  50.9621468  57.8812866  40.0333176  43.9192238
  57.6134224  39.1914215  43.5508690  57.0648422  40.4359512  44.2150879
  13.0975752  41.8890343  68.7021713  13.2824135  41.2947617  69.4294357
  12.1457224  41.8602409  68.6053238  73.4348526  35.6221123  41.0644913
  74.2404556  35.7228966  40.5574646  73.7261276  35.2888260  41.9132042
  55.9566574  22.5582352  63.2488060  56.7941895  22.9539108  63.0075226
  55.9883804  22.4937248  64.2033005  43.2979355  60.2896652  88.8783112
  44.0420837  59.6999435  88.7570419  42.8889618  60.3400230  88.0143433
  77.4234543  50.8474312  56.7225647  77.5345764  50.9816055  57.6637764
  78.2803574  50.5459824  56.4207840  78.7537994  12.8843937  16.0583687
  78.0859070  13.2888813  16.6120377  79.0411453  12.1163139  16.5520458
  49.8498383  40.9089394  21.0541992  49.2985992  41.6357155  20.7640934
  50.7356682  41.1614456  20.7938576  16.6940174   3.8473468  81.5241547
  15.9389420   3.6335063  80.9760971  16.3245029   4.3312578  82.2627487
  55.6583862  63.9471245  82.0479202  56.0400391  63.6589546  82.8770905
  56.1487122  64.7370529  81.8202667  54.6749344  22.7715111  43.6325455
  53.8908424  22.7908573  43.0838585  54.9029350  21.8437557  43.6918488
  20.5528793  18.3653107   3.0466750  20.7088661  18.8581982   2.2410939
  20.7325897  17.4555550   2.8094373  15.3501396  55.0965424  17.1516075
  15.0967932  55.6304016  17.9046307  15.5041533  54.2252121  17.5167027
  69.0153809  32.3107262  45.2177162  68.5626755  31.4796505  45.3612480
  68.7523651  32.5777435  44.3369484  63.4770737  12.3113718  23.3011017
  62.9757729  11.6834145  22.7809105  62.9317017  12.4743280  24.0706768
  42.4608955  26.0982609  14.3028393  42.6019402  25.7011642  13.4433908
  43.1814842  25.7689552  14.8400002  28.8804874  70.2438202  26.7605247
  29.5674210  70.1073685  27.4130077  28.0648613  70.2070465  27.2601585
  60.7610741  39.6943817  78.5132751  60.2831993  39.8457642  79.3287201
  60.2654190  39.0062370  78.0694122  29.1560936  56.3330536   2.6927681
  29.4278431  57.0024719   3.3206706  29.9739094  56.0245743   2.3025792
   1.0346031   3.8687983  86.4362335   0.9528876   4.2319479  87.3180923
   0.1737316   3.4935246  86.2510300  29.8207760  31.7148933  79.8564453
  29.1097317  31.8579674  80.4810867  30.3201656  30.9860973  80.2248154
  15.1547852  59.9414749  25.3566227  15.1971970  60.6320267  26.0181122
  15.9307442  60.0816345  24.8139687  48.5829582  15.0773363   6.8796511
  47.7010880  14.7833652   6.6513538  48.6964798  15.8941078   6.3936181
  63.3647881  21.4639683  69.5882797  63.1210327  21.8558636  70.4268723
  63.7519531  20.6202602  69.8217163  35.5690956  70.1881561  70.7706680
  34.7601089  70.5011444  70.3659286  36.2668648  70.5824280  70.2473145
  53.0273933  50.2890739  30.7562160  52.3969002  49.8217010  30.2082462
  52.4905891  50.8629875  31.3027477  18.4472885  27.2340145  11.4970169
  18.8294258  26.6888714  10.8092508  19.1131210  27.8986607  11.6734915
  59.5874863  18.4031029  37.1835938  58.7409325  18.4441814  37.6284485
  60.1369438  19.0284538  37.6561012  65.7234497  24.7495918  10.5079460
  64.9029846  24.6198750  10.0322943  65.5684814  24.3532448  11.3653402
  12.1572676  49.4545670  53.7962761  11.9920235  48.5270653  53.6269608
  12.8714876  49.6830978  53.2013855  34.7447968  27.1955624  81.1352234
  34.4541245  26.9833164  80.2482681  35.6975250  27.1092663  81.1021271
  42.8876610  63.0227356  31.3681908  42.6503410  63.3080292  30.4858532
  43.5550041  62.3503571  31.2311230  79.7251282  64.4019318  51.3521996
  80.3216171  63.6535950  51.3314285  80.2828064  65.1578979  51.1685295
  73.9309235  19.7568913  73.5579224  73.0296478  20.0447006  73.7031860
  74.4588776  20.3363724  74.1071930   9.8775244  37.9476624  23.5510387
   9.1029596  37.3905144  23.4744549   9.5400257  38.7844124  23.8706875
   5.8513346  61.0034142  69.9065018   6.5656352  61.1662216  70.5225372
   5.0580020  61.0611343  70.4389648   2.8731825   5.8536735  57.5023003
   3.1060369   5.0828867  56.9847145   1.9160247   5.8626037  57.5013351
  28.7972736  53.3318253  77.0331726  29.6213913  53.7720032  76.8250732
  28.8132877  53.2309532  77.9849091  17.3689995  69.8414459  83.7647934
  17.6884937  70.0482941  82.8865128  16.8320026  70.5955505  84.0080872
  37.5143929  43.2822342   2.4842846  38.0335503  42.5077972   2.2675922
  37.9801292  44.0071411   2.0673563  77.3310394  48.2665291  22.3901119
  78.1261292  48.5627327  21.9470215  77.1066895  47.4439583  21.9550571
  30.5597858  49.2642937  74.2290802  31.2800999  48.8190041  73.7828827
  29.7760811  48.9867020  73.7547607  36.9371605  19.6116161  12.7685156
  36.0382576  19.8623600  12.9814377  37.2694969  20.3373299  12.2401915
  53.7958412  45.2885628  60.2483978  54.5744095  44.7344170  60.1937866
  54.1090546  46.1645470  60.0230598  81.2067642  51.6808662  51.3647156
  81.1847305  51.4945450  50.4260826  82.1044159  51.4781990  51.6281242
  14.8925495  55.4726219  54.5818520  14.5357924  55.5465584  53.6967049
  15.5454140  54.7754059  54.5194855  77.8551254  20.2252274  26.3163261
  78.0773163  20.6785297  25.5030746  78.2331161  20.7711239  27.0057850
  84.4520645  42.3386002  84.3119812  84.7499542  42.9983978  83.6857605
  85.2582016  41.9714622  84.6747360  66.3221207  52.8845406  48.0249557
  66.8117065  52.2936211  47.4528084  65.5104446  53.0607071  47.5491600
   0.9411704  18.9956799  65.2088394   1.2103094  18.7885990  66.1037827
  -0.0067381  19.1160202  65.2655792  17.1407852  51.2957535  12.5397873
  16.6423359  50.5735397  12.9221334  18.0549774  51.0223656  12.6155663
  67.6294479  49.8255997  10.0980730  67.8160934  49.4012146   9.2606401
  67.1007996  50.5893745   9.8669596  19.1597805  70.5446243  20.0490704
  18.3092327  70.1191025  19.9407387  18.9477253  71.4409027  20.3097305
  86.1493149  13.2195845  81.3815613  85.6786728  12.9851608  82.1814194
  86.9382172  13.6655006  81.6898193  22.6038322  33.5300560  63.0833855
  22.4648914  34.4770355  63.0707626  22.0621548  33.2181473  63.8083229
  84.3581848  41.3723602  15.2127924  83.6620331  41.6077385  14.5994406
  85.1291656  41.8393707  14.8907347  16.9042263  68.2905731  46.5062447
  17.2564354  69.1723709  46.6271515  17.4039268  67.7474213  47.1157608
  84.9579315  49.9635925  77.0480957  84.1443329  49.5554314  77.3442307
  84.6812668  50.7909088  76.6540909  55.0081100  47.3564377  66.1940384
  55.9504700  47.3378754  66.3609009  54.7177124  46.4596405  66.3603439
   1.0159377  22.4372482  73.2192383   0.1398630  22.1748486  72.9366226
   1.5541208  21.6568451  73.0867233  29.8014641  65.9151001  54.6594810
  29.3537445  66.7060318  54.3591385  30.5622711  65.8373184  54.0838509
  57.1553726  26.9386311  10.3763790  57.2361259  27.2186565  11.2881336
  58.0401192  26.6696606  10.1291771  16.0486546  65.1740723  29.3036442
  16.7478733  65.0595322  28.6600571  16.4146252  65.7778015  29.9500256
  31.2933064  35.4987030  52.7897873  31.6027126  34.5972824  52.8788872
  31.9295177  36.0198250  53.2795792  55.2832909  32.3536911  65.4225388
  55.8049202  33.0415268  65.8360825  54.3984337  32.7163696  65.3810501
   9.6661806  12.1641712  26.1347218  10.3318901  11.6963625  25.6305218
  10.0171776  13.0494204  26.2314987  59.2446709  37.6816902  27.2088852
  59.3974953  37.8396835  28.1405048  58.6648445  36.9204025  27.1870193
  85.0959702  17.3376980  10.0539122  85.7404022  16.8171959   9.5743179
  84.4854355  16.6929264  10.4113359  74.1736832  46.1146011   0.4391610
  75.0399857  46.1262321   0.0322068  74.2256470  46.7730446   1.1319684
  28.4504337  34.0463867  78.8062363  27.9276524  34.4992752  79.4679184
  28.6495590  33.1964188  79.1988373  53.0851974  68.6061172  69.5339050
  52.6521950  68.6982727  68.6852264  53.9171410  69.0679092  69.4297180
  31.3871994  52.2022972  72.5732193  31.1899242  51.3258934  72.2427139
  31.9404926  52.0504074  73.3394012  36.3768349  66.4851151  46.3380203
  35.4719810  66.3916092  46.6358986  36.3009796  66.7631836  45.4252510
  62.8224182  40.7286644  67.5804138  62.4475822  40.4237022  66.7541428
  63.0929260  41.6294823  67.4026871  74.1782150  30.5179558  74.0707779
  73.9948120  30.9180183  73.2207489  73.4706802  30.8250103  74.6376572
  20.9009762  32.0025253  16.9904900  21.5536251  32.1378632  16.3034916
  21.1312523  32.6380959  17.6681709  35.7567787  67.3097076  10.2348328
  36.3388023  66.6108475  10.5332975  36.3393059  68.0495911  10.0631752
   5.7288151  40.6568642   9.8274679   5.2743049  41.1370163   9.1352921
   6.0538197  41.3371773  10.4171953  83.8312607  67.7424622  52.4654007
  84.6425781  67.2473221  52.3521461  83.1366425  67.0955353  52.3420105
   4.8197927  55.4790840  23.8979321   4.7375431  56.3991737  24.1487236
   5.4344387  55.4848595  23.1641674  62.0845985   8.0125294  36.0351410
  61.1716232   7.7308092  35.9772797  62.5538902   7.4276657  35.4402199
  55.8311043   3.4865174  85.5671082  56.1031876   3.8084562  84.7077103
  55.6148643   2.5656669  85.4204559  29.4419670  47.3368721   4.2915168
  29.2675686  47.2050972   5.2234249  30.1888657  46.7680740   4.1048503
  30.8988342  46.8888321  20.4926243  31.8429317  46.7395744  20.4413090
  30.8030090  47.8393326  20.4326649   3.2385681  43.6558456  71.0413666
   3.7779987  43.1230469  71.6256332   3.8525970  44.2751427  70.6468124
  21.8576183  62.8406601   1.7276988  21.4720135  63.7165718   1.7098308
  21.4134789  62.3981514   2.4509952  12.0435400  15.3145819  11.5812702
  11.4153576  15.2430153  12.2999468  12.8871145  15.0972385  11.9779758
  72.9196625  41.7518005  22.1607971  72.3647003  41.1026115  21.7285881
  72.3848953  42.5452881  22.1860409  46.1829605  20.3955936  22.1161079
  47.1155777  20.3063660  21.9199009  45.9779320  19.6328678  22.6568890
  83.8608246  58.9510994  54.8698883  84.1659012  58.4567642  54.1091042
  83.4507980  59.7325172  54.4990768   1.1660333  43.4155769  50.7052116
   1.0165277  44.1161919  50.0703773   1.9239627  42.9408836  50.3639755
  14.6363182  45.1677475  72.3510056  15.4354486  45.6521721  72.1437454
  14.1406698  45.7559013  72.9207764  51.7107887  59.3840714  28.1397362
  52.4077263  59.6140862  27.5252438  51.5737877  60.1790237  28.6550102
   4.7702093  20.5102978  73.6544647   4.9905181  20.1535530  72.7939835
   3.8686755  20.2273140  73.8074036  31.8257389  38.5226707  66.6754456
  30.8894672  38.5354500  66.4767914  31.8685741  38.5687141  67.6305771
   3.4818351  56.2977524  21.4413052   3.9136794  55.6329765  20.9048233
   3.7235072  56.0742569  22.3401260  34.9844551  68.4422455  79.1958313
  35.6237411  67.7329254  79.2621765  34.6148453  68.3502045  78.3176804
  68.9040222  10.5850306  56.1830978  68.2021637  10.9284163  56.7360153
  69.6907654  11.0388536  56.4852867  68.9393234  59.9917526  11.9946127
  69.0927734  59.0494232  11.9260778  69.0967484  60.1935997  12.9169512
  59.3773270  45.0440216  40.7715988  58.5650368  45.1376305  40.2739487
  59.8657494  45.8460197  40.5859222  62.3093758  30.2898273  12.7479095
  63.1150894  29.8429356  13.0074301  62.5728188  31.2003422  12.6145172
  82.9044495   3.4314058  67.5851364  82.3164825   2.8599815  67.0911713
  83.3564606   2.8439584  68.1907883  30.0213242  43.3289337  45.1081619
  30.8228111  43.6097984  44.6666107  29.9403496  43.9202385  45.8565178
  79.9892807   3.4417343  12.0645132  80.7902679   3.8932998  11.7985468
  79.6479340   3.9661596  12.7888680   4.5847034  30.0141964  71.1072159
   5.3264127  30.6182652  71.0725937   3.8589728  30.5446167  71.4361572
  54.9584084  31.5419598  40.1512299  55.8419151  31.3011093  39.8725929
  54.4583054  31.6010532  39.3372040  72.8628998  18.8173046  36.9897385
  73.1316452  19.2944546  36.2046700  72.1287384  19.3232555  37.3379555
  44.5942726  24.2030563  63.1103172  44.6404953  23.2479286  63.1530457
  45.0318527  24.4999580  63.9081917  45.3002853  52.4801941   2.2637382
  44.7716675  53.0538979   1.7090677  45.1027756  51.5970497   1.9518460
  79.6338501   0.6639733  34.8748245  80.2286453   0.5625677  34.1317482
  79.4050369   1.5934215  34.8733597  81.0526276  55.6003876  23.5605259
  80.3842010  55.5059814  24.2391510  81.3749313  56.4956512  23.6646919
  50.3672676  23.4420338  28.2988396  51.2303772  23.3440361  28.7009201
  49.7747345  23.5882854  29.0362339   7.0864825  38.3009148  65.5692902
   7.7267561  37.9391441  66.1819916   6.9184422  37.5898819  64.9508820
  17.6764584  -0.0461088  68.1844254  17.6162109   0.0882300  69.1302338
  18.0416546   0.7726417  67.8489990  21.7009430  25.1465416   7.3908205
  21.6380100  24.5908260   8.1676416  21.6486053  24.5365086   6.6550541
   5.4585619  47.8559113  48.7249107   6.0550051  47.9154053  49.4711990
   5.4412456  48.7410583  48.3609810   3.7114074  45.7654800  85.2631073
   3.1923385  46.5696907  85.2564392   3.5986397  45.4149475  86.1466446
  40.8127289  38.9220123  30.8466606  40.8149872  38.3056831  30.1142902
  40.4496422  38.4231110  31.5784340  85.1043015  65.7130203  55.9295006
  84.3862228  65.5167465  56.5312271  85.8290176  65.9730759  56.4981689
   7.1718822  61.3603745  21.2084732   6.4145989  61.2541466  21.7842083
   7.5744700  62.1814499  21.4913006  59.1668663  59.9105072  40.1653137
  58.6878281  60.6971092  39.9045296  59.5064812  59.5537682  39.3445625
  66.2241211  40.5045319  47.2189178  65.5984039  40.0917740  46.6236458
  66.6976166  39.7724380  47.6139755  23.2475548  26.1295700  17.4336433
  22.8366108  25.2896175  17.6381836  23.4744129  26.4993076  18.2869091
  20.8546352  64.2747421  43.0198097  20.0557423  64.0007324  42.5693436
  21.5339222  63.6936913  42.6774902  60.3027954  47.6223488  43.8999596
  59.5908737  47.6777000  43.2625160  59.9889565  48.1222229  44.6535263
  33.9458847  59.1997566  47.8981552  34.4481239  58.8316116  47.1712036
  33.3086929  59.7788811  47.4800224  45.9509125   1.5342299  87.0163269
  45.2704430   0.9358823  87.3248215  46.5114136   0.9931942  86.4601288
  23.9648170   4.4915414  89.3168259  23.9452515   4.7608480  88.3984985
  23.2636299   3.8442566  89.3915939  76.1118088   5.2762012  88.6638336
  75.7595062   5.1838198  89.5490417  76.9379120   5.7449217  88.7825394
  40.5590591  10.9239349  85.4315338  40.6935883  10.2254362  86.0720291
  39.7804527  10.6551065  84.9439545  43.2127075  29.8583088  32.5179367
  42.8527641  29.0957375  32.0649948  42.8067780  29.8358383  33.3845100
  80.4819641  26.2954693  36.2132378  81.1599350  26.3976135  36.8811874
  80.1107483  25.4289513  36.3792992  14.8497019  10.6460714  85.0191574
  14.0687237  10.0963850  84.9547424  14.5139265  11.5422726  85.0015106
  16.9957104  68.0873947  69.3509598  17.1099930  68.5657654  70.1721420
  17.8440056  68.1571960  68.9130630  62.9919395  54.6323814   2.4611065
  62.4767609  54.7213402   1.6592898  63.4008408  55.4897194   2.5794272
  28.3845196  49.7409286  67.3071976  28.6499691  50.3228149  68.0193558
  28.9398746  49.9954720  66.5702972  85.8316422  22.3414268  65.8591232
  85.7685852  23.2957916  65.8211365  86.5856934  22.1735229  66.4243240
  82.1620331  33.4836731  72.7143478  82.7615509  33.9981804  73.2548065
  81.5816269  34.1324730  72.3163376  30.4271126  55.2031822  20.3671741
  31.3001595  55.1973839  20.7595882  29.8320312  55.3149490  21.1085358
  59.0080566   0.1956086  55.1037865  59.0450134   0.0182713  54.1638870
  59.7988701  -0.2128971  55.4558792  84.7864914   5.9541283  20.2641602
  83.8757858   6.2145224  20.4021759  84.7350616   5.2150879  19.6580200
  68.8803864  56.4168091   3.3024063  69.4577560  57.1543694   3.4995906
  68.3300552  56.7288208   2.5840642  13.7292576  35.6050911   7.6117115
  12.8553810  35.2473030   7.7684221  13.7730675  35.7232552   6.6628437
  10.8890123  24.9959545  84.4972534  11.2314577  25.8546982  84.7452927
  11.6368008  24.5435181  84.1069412  85.0611801  46.7417984  69.1959457
  85.0893478  46.3616104  68.3179398  85.3269653  46.0273972  69.7749329
  54.2586594   4.5234275  46.1714287  53.9314499   4.3954868  45.2810364
  54.0053329   3.7261171  46.6365662  26.1493263  59.0329208  23.3349133
  26.1127300  59.8786964  22.8881989  25.9139652  58.3955536  22.6606712
  56.7132263  23.9932480   6.8423285  57.0880280  24.8661900   6.9594908
  57.4696465  23.4257545   6.6939764  30.4173584  55.7741852  25.2035675
  30.1396065  55.3327522  24.4009323  31.0121040  56.4622002  24.9049988
  44.6499825   6.5315280  54.2737541  44.9963417   6.7079844  55.1484718
  44.3123627   5.6373544  54.3257256  61.2652702  55.4386520  72.5167770
  60.4303894  55.9050560  72.5576172  61.8602791  55.9654732  73.0503082
  58.7281151   7.8677583  66.8363037  58.3363037   8.5732632  66.3215485
  59.3320694   8.3122616  67.4311905  61.4706039  14.9832191  14.9551077
  62.3330460  15.1534519  15.3338547  61.2022934  15.8233852  14.5831375
  33.1115456  62.6240578  43.3472900  32.5356903  63.2331085  43.8095436
  32.5357971  61.9090614  43.0761375  59.6713104  41.1112709   8.0070877
  59.0772514  41.7533379   8.3957729  59.1599464  40.3029137   7.9710155
  60.5629578  60.5437012  42.6598969  60.2237434  60.2837868  41.8033867
  61.3610725  61.0339622  42.4627037  63.9473152  70.6467514  75.0988693
  63.4379730  69.8989029  75.4111633  63.2922821  71.3142395  74.8948517
  75.0198441  68.0532532   9.5725746  74.8378372  68.4694138   8.7300110
  75.3076935  67.1689911   9.3457365  57.8772888  13.0270729   9.5949640
  58.0388756  13.6475124   8.8842068  58.0663986  13.5217371  10.3923206
  36.8015518  49.2177887   1.4228624  37.0244293  48.4440613   1.9404604
  37.4351044  49.2165909   0.7053358  20.4335003  49.8380508  31.1098042
  20.1109829  50.6337967  30.6867180  20.9968224  49.4289780  30.4528713
   7.9170389  32.5839767  60.3456421   8.0760937  32.1349258  59.5154114
   8.4802008  32.1321297  60.9740639  46.6180344  43.9888649  58.1058502
  47.5077744  43.8905296  58.4448586  46.3289185  44.8398399  58.4352150
  45.3743248  61.4695053  24.3863602  44.6467628  61.4980583  23.7650127
  46.1546822  61.3891640  23.8378906  32.9225273   5.5055761  84.6950836
  32.1826859   5.9091802  85.1489258  32.5246391   4.8423872  84.1310806
  62.5163612  44.1403618  73.4250946  62.5432587  44.4626961  74.3259888
  62.2811508  43.2162476  73.5082779  42.0873337   5.5843582  57.6572227
  42.8208847   4.9700294  57.6301689  42.4062729   6.3150582  58.1869240
  76.3149033  62.0457344  24.5306530  76.8926620  61.5698280  23.9340458
  76.6174622  61.7991219  25.4046497  48.7521935  41.5746193  37.7011909
  49.5121574  41.0689392  37.9892426  48.0526619  40.9270859  37.6140862
  65.6774750  38.7688255  37.4315643  64.8271484  38.9952049  37.0548325
  66.3053589  38.9511223  36.7324486  67.1869125  13.6328173  44.3259964
  68.0884018  13.4106312  44.0932388  67.1258163  14.5759115  44.1740990
  60.7927628  43.0170403  39.5859795  60.3963470  43.7231827  40.0963249
  60.1328583  42.3236771  39.5835419  74.6065750  53.1974487   5.2198739
  73.6949539  53.4637070   5.3393855  74.7392349  53.2160149   4.2720923
  79.6563568  63.8731842  27.6578484  80.3617249  63.6751213  28.2738571
  79.8198013  64.7772598  27.3892078  55.3837814  41.3651466  67.9719849
  55.3563690  42.2094917  68.4220581  54.6270332  41.3813744  67.3860703
  67.4135056  48.5193634  19.8461266  67.0266037  49.1682587  19.2583542
  66.9899826  48.6777382  20.6897984  20.5911026  12.0495071  11.8545675
  20.2725239  11.5739813  11.0873566  21.5444698  11.9866934  11.7964430
  34.5046005  62.9709549  48.9395027  33.5771370  62.8700447  48.7253685
  34.9402084  62.2708664  48.4533424  36.0048218   2.3814976  47.8887253
  35.8497276   3.1698813  48.4089432  36.4089241   2.7022183  47.0824547
  71.5802383  31.3147736  55.7915192  72.1649323  31.6042309  55.0911102
  70.7017670  31.4017696  55.4214516  30.3558331  43.5630646  74.9330826
  30.0677605  43.2285423  74.0837631  31.2873440  43.3463287  74.9724274
  14.4760599  39.6725731  48.8950653  13.9618168  40.2948265  49.4094467
  13.8409662  39.2674789  48.3044853   4.5836611  64.1948776   6.4466348
   5.3704100  64.0391159   5.9241447   4.4425344  63.3736725   6.9177318
  53.0241051  69.7835464  61.7224617  53.5436554  68.9808121  61.6785812
  52.6820717  69.7989044  62.6163368  82.8707809  16.1032925  55.5810318
  83.1939774  16.9872112  55.4065018  82.9046783  15.6637640  54.7313843
  83.2692032  29.6269913  81.9804764  83.1733704  30.1073265  81.1580811
  82.9341888  28.7514725  81.7869186  58.1679268   9.8663054  84.7826004
  57.8811264   9.9585285  85.6911621  58.9507713  10.4137440  84.7218170
  66.2097244  46.1027641  65.1819916  66.0978851  45.2453156  65.5924911
  65.3331528  46.3393631  64.8788910  74.4519196  61.8450394  43.7560806
  73.8378601  61.8458595  43.0218048  75.1773148  62.3961411  43.4622879
  52.5145454  20.6903324   9.1404581  53.3599930  20.7104416   9.5888405
  52.7356491  20.5622253   8.2179976  57.2321777  37.7631950  15.4830685
  57.6440887  37.4106712  14.6942148  57.5765038  38.6533623  15.5556927
  54.7069206   8.6452227  38.9353180  53.7606544   8.5011492  38.9426613
  54.8157349   9.5006104  38.5197411  45.2691307  18.9779453  12.7385921
  45.8745270  18.9529724  13.4796076  45.5752258  18.2831116  12.1557159
  51.0058632  44.1264534  28.1101017  50.1551399  44.2991600  28.5134258
  50.9762726  44.5976944  27.2774620   6.9197383  16.2727432   9.4096394
   7.3394337  16.7298050  10.1384611   7.5580883  15.6115456   9.1421337
  70.9376984  67.8255310  17.5968628  70.8117447  68.5969162  17.0442982
  70.0620193  67.4495010  17.6864300  21.2347984  59.4897842  42.3559074
  21.2151718  58.5386925  42.2497406  21.3304138  59.6236000  43.2988739
  49.9441795  21.5719986  84.5310898  49.0195656  21.4684353  84.3061676
  50.4140167  21.1389751  83.8183670  85.8102951  67.6513367  82.4633942
  85.9775696  68.5765305  82.2837219  86.6693344  67.2909546  82.6834106
  10.2380657  50.1172981  49.2050591  10.9483242  50.2637291  49.8298187
  10.6756506  49.8004456  48.4148979  48.8253136   6.9928398  29.5204372
  49.2352219   7.6131225  30.1233101  48.2129631   6.4984016  30.0652256
   1.8367152  51.1228485  61.8684006   1.0032928  51.3011818  62.3041039
   1.5977962  50.9415855  60.9593925  15.2863951  63.3277893   4.7160406
  15.3467808  63.6424141   5.6180363  15.7226229  62.4758797   4.7298198
  56.6823387  57.1967049  33.9811096  56.2174911  57.4702568  34.7718811
  56.1702271  56.4613953  33.6445160  68.8228531  62.2660561  46.3031273
  68.4131165  62.2537079  45.4381447  68.3307800  62.9258003  46.7918434
  77.6196671  10.4099855  59.9236717  77.9640350  10.8178930  59.1291580
  77.5499496  11.1293135  60.5513191  77.9864807  59.4914589  86.3435287
  78.5586700  58.7269135  86.4090805  78.3089752  60.0904198  87.0169296
  41.9157677  40.2741394  85.3925018  41.3769455  39.8738937  84.7100754
  41.5311012  39.9658203  86.2129898  62.2379036  67.9304123  16.4233418
  61.3176003  67.7380371  16.6029663  62.6333885  67.0747757  16.2568817
  29.9829521  53.8547020  53.1384239  29.5475750  53.1696053  52.6311569
  30.8630810  53.9060440  52.7656403  11.8495855  13.3084097  19.5425472
  11.4648104  13.1274109  18.6849823  12.7920303  13.3452930  19.3792439
  52.3317680  53.2679100  62.9581604  52.6774864  52.9885635  62.1104088
  52.2016602  52.4534454  63.4439125  19.4481163  19.2501945  80.6437378
  18.7900524  19.9450436  80.6629028  18.9715652  18.4772816  80.3408585
  83.7099075  14.3362122   8.2526855  83.2522049  14.8907700   7.6208601
  84.3299713  14.9248934   8.6830444  68.3622742  69.9199295  46.1461563
  68.7265625  69.4179916  46.8752556  67.4511795  69.6320801  46.0887718
  42.1039848  69.3457642  64.0718613  42.2364311  69.5904999  63.1560059
  42.2854614  70.1472931  64.5626144  27.7771759  65.0023270  61.9867363
  28.1245060  64.6345978  61.1741066  27.6382866  65.9287949  61.7902565
  36.7712288  65.7918549  15.8787460  36.9097633  64.8466415  15.9388981
  37.3712349  66.1634903  16.5253563  41.6981468  68.6239395  84.5213089
  41.9881058  69.2968597  83.9054108  40.8248749  68.3792725  84.2151031
  47.3612556  14.0605717  49.5568657  47.0129967  14.4512091  50.3583336
  47.5169716  13.1441278  49.7851562  81.2655869  23.2494373  65.6912231
  81.5924072  23.9608173  65.1404495  80.7457886  23.6876526  66.3650284
  46.7973289  31.0405960   5.5671067  47.2263756  31.5598030   4.8869801
  47.4847069  30.8768444   6.2128077   6.1440034   7.6130657  31.1084785
   6.4842777   7.0253711  30.4338970   6.8786249   8.1906710  31.3156872
  72.8816147  12.4154787  59.2111702  72.5994797  12.9906092  59.9224091
  72.1468353  11.8156996  59.0823555   7.4374886  12.7490425  28.3655186
   6.5549459  12.3815603  28.4135513   7.3894682  13.3962727  27.6619415
  49.0750427   6.4427943  40.5306435  49.9569740   6.6194901  40.8580666
  48.6396637   7.2951565  40.5431824  75.2328339   7.9594932  48.0148544
  75.9399261   7.3162608  47.9648476  75.0260773   8.0160990  48.9477425
  18.6691380   9.0351067  18.3003674  17.8771362   9.4343300  18.6603489
  18.4239731   8.1250257  18.1333961  26.6478024  18.6572495  76.0568695
  27.5199585  19.0503826  76.0888367  26.5517673  18.2184200  76.9021149
  23.8810806  68.7121506  46.4403801  23.1807327  69.2821198  46.7579918
  24.4824162  69.3020859  45.9858475   8.3637075  64.2681427  74.9042969
   8.3299980  65.0541687  74.3590851   8.9001045  64.5207214  75.6557693
  27.2735806  55.1295853  27.9396992  27.1580429  55.4461403  28.8356209
  26.6795368  54.3821487  27.8712902  63.8661499  13.3489628  51.4783630
  63.5698433  13.7865677  52.2764435  63.0742912  12.9534874  51.1139526
  19.2374763  13.1925316  77.1580124  18.9532642  13.5434237  76.3140182
  19.2525291  12.2440176  77.0302353  17.4741955  46.4972115  18.7450104
  17.8383884  45.8692513  19.3689194  16.6500854  46.1019058  18.4607372
  28.5175228  31.8732529  13.5510187  28.4110279  31.1564274  14.1763592
  29.2497559  31.6015377  12.9976320   8.3212709  51.2076492   3.4155426
   7.8484330  50.8472061   2.6653850   8.6739817  52.0393715   3.0992069
  83.6270752  60.9820023  14.5680819  84.3342133  61.0609589  13.9278069
  83.3175812  61.8788643  14.6949291  40.8993988  35.4182320  77.6510696
  40.1589813  35.0130081  78.1025238  41.4477539  35.7657127  78.3544922
  61.7922363  28.1639843  63.7376213  62.2606888  28.9944401  63.8220520
  62.3172989  27.5406952  64.2396698  39.9672508  65.7181396  78.7027969
  39.4223976  65.3647537  77.9995956  39.4250603  65.6407318  79.4878235
  24.4690456  45.7234116  10.0026379  23.5724773  45.8082275   9.6782913
  24.5344543  46.3764267  10.6994362  85.3319626  39.2618332  13.5544586
  84.9570999  39.9249229  14.1341333  85.7269745  38.6218033  14.1465368
  41.1233139   1.1296052  44.5388145  41.0982933   0.4147823  45.1749229
  41.3580437   0.7069510  43.7126808  52.8749466  32.2056732  38.0473633
  53.5104485  32.2585945  37.3335266  52.0922050  32.6362305  37.7036057
   0.9327011  67.4103928   2.8112097   0.4183136  66.6064835   2.7379372
   0.8094628  67.6918030   3.7177708  59.6930008  63.1469154  75.2012482
  59.8670769  63.9938278  75.6119461  59.2713394  62.6299934  75.8877029
   8.3617773  39.4268532  62.4969749   8.6860228  38.5528145  62.7141266
   7.7021217  39.2762260  61.8199234  22.1038933  23.0238609  76.3063583
  22.4123917  23.9290142  76.2644043  21.4174061  23.0354633  76.9733124
  78.7719879  29.5984344   0.2228198  77.9774933  29.7656841   0.7298078
  78.6028824  28.7668743  -0.2200592  54.8539848  19.9506149  44.8018990
  54.4283447  19.3558273  44.1844139  54.2846375  19.9446945  45.5713425
  29.6320820  50.5374298  29.1168613  29.7070503  51.3946762  29.5360699
  29.1941509  49.9897003  29.7683544  83.6668777  52.6938477  82.9189682
  84.0441132  53.5575638  83.0860519  84.0978546  52.3950806  82.1182022
  10.2989902  42.8845596  57.9854317   9.9782200  42.7273254  57.0973892
   9.5097179  43.0609245  58.4974632  80.4402542  28.9348965  51.1734467
  81.2923050  29.1496162  51.5531006  80.3934784  27.9797325  51.2147560
  39.6478729  63.4974670  25.3481045  40.5725441  63.7016716  25.2084122
  39.1778603  64.1370621  24.8130913  70.3742828  40.5830879  17.6897697
  69.5313873  40.4193993  17.2667255  70.8285217  41.1803894  17.0955238
   9.5457449  42.9575806  75.8845596   9.6177063  43.1575279  74.9512482
   8.8346109  42.3191452  75.9385986  81.4163132  21.5556736  15.5584202
  82.2314987  21.8370018  15.1430216  81.3121643  22.1452751  16.3052483
  14.7282839   2.8537126  17.4940224  13.8177519   3.0824077  17.3073082
  14.7127895   2.5227082  18.3920345  36.8867264  57.4370155  22.7361240
  36.5571289  57.7658310  21.8997746  36.5123444  56.5594063  22.8127480
  67.9458160  26.4609699  88.6578140  68.1890106  26.2301426  87.7612534
  67.0364075  26.7522678  88.5918503   4.9212475   8.6892157  28.7809925
   4.9815454   9.6445141  28.7800121   5.4179158   8.4186697  29.5532341
   6.1391859  34.9009094  81.2852097   5.3202143  34.4054871  81.2765808
   6.1658196  35.3344841  80.4322510  59.0318031   6.1981454  69.9926071
  59.0650406   5.3398170  69.5702286  58.1358109   6.5020156  69.8473816
   5.8921657   6.5210147  80.8805771   5.1035128   6.1638908  81.2888947
   6.5437808   5.8254948  80.9693604  62.1310272  48.6363983  79.4960022
  61.6709938  49.1642799  80.1486435  61.5055809  47.9522781  79.2572021
  32.7459030   7.9952817  18.7809811  32.5950203   7.4146314  19.5268440
  33.1397629   8.7792997  19.1636333  31.0484619  64.9789047  70.2371826
  31.9060783  64.6027451  70.4352341  30.9847412  65.7440567  70.8087692
  33.4971008  48.8096008  49.9631920  33.2532043  49.6551285  50.3397980
  32.8081856  48.2110939  50.2520065  68.7363510   4.1168151  84.0386887
  68.9376144   3.2841778  83.6115570  69.5711594   4.4042721  84.4084244
   2.0647199  14.4175520   7.1446567   2.6947238  13.6994495   7.2051144
   2.1139052  14.7031565   6.2323833  25.5568428  19.5183868   8.1988525
  25.3908043  19.9587765   9.0323505  24.6861649  19.3066540   7.8622203
  46.5417366  46.3296432   7.0474944  46.4708710  47.1067772   6.4931731
  45.7465553  46.3420868   7.5801892  41.0096283  48.8823547  45.9222641
  41.5187302  48.1083412  45.6815262  40.1137924  48.5592766  46.0188637
  82.8930740  71.0893784  78.1605072  82.4067917  71.8900986  78.3569946
  82.2554321  70.3859406  78.2822189  48.0501404   3.3626051  56.4757233
  48.9396629   3.4170799  56.1264114  48.1546898   2.9526441  57.3343468
  43.1846542   2.4127903   7.8062544  42.4690399   2.9246879   7.4293051
  42.7621498   1.8556477   8.4599476  83.2565994  52.8390503  86.6523438
  84.1222534  52.5698128  86.3451233  83.4345627  53.5055542  87.3159180
   5.5499268  19.5272160  10.2347727   6.2978206  19.4144382  10.8214312
   4.7852330  19.3698807  10.7885971  81.9845734  33.1424179  26.5398273
  82.8057404  32.8089752  26.9013977  82.2077942  33.4144402  25.6496544
  86.6566391  52.6730232  84.4778519  86.4539795  51.7989845  84.8113480
  86.6261597  52.5791092  83.5257568  15.1123352   8.8328485  64.9449310
  15.9507694   8.6454248  65.3669891  15.2990227   8.7803898  64.0075836
  72.1558990  28.0073299  81.9972687  72.1334000  28.9093590  81.6777878
  73.0854034  27.8253536  82.1356125   5.7009482  47.3178444  42.8747978
   5.6098514  48.0742798  42.2953758   6.5882821  46.9975052  42.7127647
  86.6513138  21.2952919  22.0898342  86.9343872  20.5197296  22.5741959
  86.0865707  20.9522514  21.3972874  47.0570221  59.1069374  78.4946671
  46.5987015  59.7807579  78.9967957  46.8329506  59.2936668  77.5829849
  69.9369507  38.6861458  46.7404671  69.7606812  39.4629974  47.2711830
  70.8856506  38.5703011  46.7931480  23.4789639  65.6607437  48.5523872
  23.7325745  64.9123611  49.0926056  24.2233181  65.7960358  47.9659843
  44.8806496   1.3377485  21.2352867  45.7581406   1.0149659  21.4403591
  44.8559570   1.3733687  20.2790680  29.1862545  59.0616608  55.8850861
  28.3299160  58.7773018  55.5656242  29.7502804  58.2966309  55.7717857
  58.1728096  31.2847519  79.5922470  58.7513084  30.5240707  79.6464005
  58.4722404  31.8637562  80.2931976  54.4895096  16.5778732  14.5054274
  54.1211586  15.8881292  15.0575161  55.1242332  16.1261406  13.9492836
  80.4457932  68.0971603  88.3357697  79.7217331  68.7002487  88.1677017
  81.1687927  68.4383469  87.8093719  63.1922379  65.2713165  37.9844780
  63.0706558  66.1112442  38.4271545  64.1306000  65.2315598  37.7997360
  67.2436829  38.5969734  29.4699020  66.9787979  38.3630600  30.3594818
  66.7408829  38.0077667  28.9075356   5.2439499  23.2115650   1.2552793
   5.6782646  23.5717850   2.0284829   5.9234023  23.2029915   0.5811115
  53.7833939  29.7039833   7.2072968  53.3282547  29.0718822   6.6509447
  54.4828110  30.0506458   6.6533365  76.5746307  18.5636253  41.4073906
  76.9608078  18.9056416  40.6010857  76.3018188  17.6738300  41.1836357
  66.5694427   1.3731210  29.6822090  65.7440414   1.8203259  29.8691349
  67.1978531   1.7675123  30.2870197  27.5589237  58.1120148  42.9795418
  26.9928093  58.1470757  43.7505913  27.6084728  57.1814346  42.7609062
  35.3479500  27.4510574  14.4922915  35.2730942  28.1465683  13.8389196
  35.5361328  27.9104805  15.3106728  39.1088409  43.9636192  82.7793350
  39.5781212  43.1345329  82.8721924  39.6379356  44.4706535  82.1635361
  35.0424881  66.3337631  39.6742325  34.9374924  65.7199631  38.9472809
  35.7553406  65.9663925  40.1968346  59.6312256  16.8413963  58.0767593
  58.7465477  16.5244465  57.8947792  60.1770554  16.4237232  57.4105377
  47.9997253  46.3232422  52.8298798  47.5703888  46.4650803  51.9862061
  48.9311638  46.4491768  52.6487923  50.3672180  28.5019741   4.5603962
  50.3288040  29.3796482   4.1803379  51.1715698  28.5006580   5.0792842
  15.0040970  29.4776917  14.3397713  15.6275816  28.7764034  14.5287027
  15.3981905  29.9589787  13.6122513  41.3939667   5.1937127  33.8880043
  41.0494232   4.3348193  34.1325951  40.7012329   5.5874887  33.3576355
   1.1741837  45.2047729  57.2080727   1.1087363  44.2870827  57.4722595
   0.5195420  45.6549683  57.7419281  82.0449295  42.9981003   9.9711113
  81.5228653  42.2558670  10.2757006  82.8927383  42.6169357   9.7427340
  24.6346359  49.6574669  58.3399010  24.8548355  50.5149460  57.9759369
  24.4432144  49.1146317  57.5750999   0.9612811  34.9351387  58.6516113
   1.7882547  35.4167557  58.6713829   0.3155831  35.5538139  58.9930038
  45.9443283  10.9508533  46.9906044  45.3160973  10.6953697  46.3151131
  46.6482735  10.3061934  46.9191360  20.9575539  13.7769556  72.8986893
  21.8240891  14.1669664  72.7836151  21.1322250  12.8514910  73.0696793
  24.5712833  18.9107513  74.2647247  23.8689079  18.7525311  74.8954926
  25.3087578  19.2087765  74.7972107  55.4518433  32.8621483  32.6948318
  56.1642227  32.2475815  32.8710594  54.9258041  32.4320984  32.0206146
  50.8171730  16.3605194  28.5963612  50.4319992  15.4973087  28.4455566
  51.4554176  16.2191677  29.2955704  23.7604084  66.6635208  15.7343807
  24.6625729  66.4605331  15.4871426  23.8341160  67.4331055  16.2987766
  51.3895149  19.1338215  11.2327709  51.1190338  18.2469120  10.9951572
  51.7128372  19.5127029  10.4153709   5.8968925   7.0386271  26.6623363
   5.3838224   7.6450515  27.1964149   5.6005430   6.1701145  26.9345398
  14.1985464  42.8144722  14.2136736  14.5121975  42.3551903  14.9927187
  13.5571613  42.2187538  13.8264103  82.6389160  20.1897945  78.9717865
  81.8147278  19.8448696  79.3152466  82.9623413  19.5021172  78.3897781
  84.6437378  56.1019135  36.2261543  84.8406219  55.3721046  35.6389198
  84.0690765  55.7249336  36.8923988  47.8578453  59.1385689  34.2239838
  48.0822258  59.5310898  35.0676765  47.4248619  58.3154564  34.4503479
  80.4580154  69.4857407  70.4264374  80.3453827  68.6128998  70.0500107
  80.2693634  70.0844116  69.7037735  40.7726250  37.9461479  34.3366013
  40.1626701  37.6313515  33.6694527  40.4607620  38.8254929  34.5504494
  32.5854607  23.2629299  70.5641556  33.0402641  22.4822369  70.2480774
  32.1454086  23.6137218  69.7898636  49.7533913  34.3473701  78.6267471
  49.9762802  33.7002258  77.9575958  50.5988808  34.6555023  78.9529877
   8.8492870  61.7047462  16.6911316   8.3959522  61.4440613  15.8894072
   8.7962875  60.9348373  17.2574005  41.9803047  66.5103302   1.0775762
  42.0032845  66.5495605   2.0336957  41.7526398  65.6017151   0.8805497
  81.4598160  53.0100708  40.7707214  81.9914551  52.9513626  41.5645332
  82.0403824  53.4089279  40.1225815  36.4407806  12.8738985  80.4298859
  35.6901970  12.5192938  80.9064560  37.2036934  12.5351391  80.8983307
  15.8144264  49.0576515  13.2867517  16.1872578  48.6567307  12.5015821
  14.8851700  48.8304825  13.2534866  21.0540485  59.0470581  80.4083481
  20.1177349  59.0386200  80.6070404  21.2351513  58.1698990  80.0706711
  35.0490952  49.1980782  52.4884338  34.2880707  48.7651711  52.8752975
  34.7468109  49.4907265  51.6286583  30.9956799  33.1910400  77.0623550
  30.1110630  33.5501785  76.9937668  31.1381454  33.0831909  78.0027313
  18.9623947   7.6058226  14.5861683  18.8959942   7.5039330  15.5356112
  19.0871792   8.5456457  14.4542837  32.6158791  59.0073433  14.2533655
  32.9144211  58.1611366  14.5865860  31.8837013  58.7924042  13.6754866
  30.1598701  58.8602142  10.3824911  29.4400616  58.4948349   9.8680925
  30.1800575  59.7864876  10.1419926  16.7477512   8.2033987  67.1491699
  17.3400078   8.6512747  67.7532196  17.2156734   7.4056878  66.9023132
  57.8123474  25.8343258  57.7816544  58.0001984  26.5877476  58.3413887
  58.2963638  26.0089874  56.9745293  74.5968857  61.4429932  85.4369965
  74.5750504  61.0087547  86.2897491  75.0723343  62.2584839  85.5955887
  79.1121979  34.5156097  75.3834915  78.4577179  35.0448685  74.9276733
  78.8054886  34.4835777  76.2896576  60.7239761  11.8684645  53.3469620
  61.5577393  12.2284641  53.0445213  60.5206985  12.3672104  54.1382675
  65.8719101  64.3690338  37.2660446  66.8106689  64.1972122  37.3398819
  65.7649841  64.7433548  36.3915787  67.0998154  46.5531998  51.6645088
  66.5628052  47.3304520  51.8185501  66.9291611  45.9906197  52.4198952
  43.4830399   6.7450686   3.3848193  43.2269135   7.4658179   3.9602759
  43.7746658   6.0549536   3.9805772  73.8191528  53.3618660  37.8787956
  72.9560623  52.9741402  37.7339439  74.0710678  53.7116776  37.0241623
  45.9465446  35.4006538  11.2024317  46.6772804  34.8493271  10.9226198
  45.9612999  36.1427803  10.5980635  67.2390442  39.1125259   7.3199515
  66.9048233  39.2466621   8.2068186  68.1408691  38.8174477   7.4459352
  78.7864227   7.6967411  70.7733459  78.9486389   8.3331003  70.0769501
  79.6480865   7.5391788  71.1592865  34.3622894  61.8219109  33.0761871
  34.7849426  62.3754768  33.7328110  34.1185722  62.4258881  32.3747292
  35.2476997  53.9772415  34.8717346  34.7273102  54.1504517  34.0872459
  35.9699097  54.6035690  34.8231888   9.2149601  64.7985001  84.8104401
   9.1131964  65.7345581  84.9826736   9.3504305  64.4093399  85.6744080
  30.9303150  50.9054871  37.6434021  30.7093601  50.4243469  36.8459587
  31.8825378  50.8342934  37.7100105   0.6311347  23.3181858  20.7518024
   0.3859563  24.0844021  21.2704868   0.3681155  22.5710220  21.2892017
  11.8925219  47.3492966  23.8567715  12.0383644  47.9841576  24.5581360
  10.9635544  47.1282806  23.9231243  25.3956261  10.7331514  77.4593201
  25.6820908  11.5878315  77.1373062  24.7428360  10.9361362  78.1293182
   6.8178530  53.4041786  55.4848061   7.4860845  53.7224617  56.0917625
   6.3295326  52.7517090  55.9868584  66.9230118   5.1365538  14.8303928
  66.4557037   5.4914694  14.0741577  67.8234940   5.0259757  14.5252142
  20.4317989  71.0065308  23.9933510  19.9028721  70.6904526  24.7258568
  20.4669170  70.2670135  23.3866272  78.4368057  71.2983322  81.2352829
  79.3143005  71.6311188  81.4236450  78.5846100  70.4248047  80.8728943
  35.9765549   2.5743015  75.1174545  36.0823479   3.4746752  74.8102646
  36.5401573   2.5166857  75.8889923  41.3832741  54.2165527  86.6479874
  41.8264236  54.7335205  85.9752350  41.9150429  53.4249725  86.7307739
  63.2874985  66.9563217   1.0305966  63.6250687  67.6596909   1.5851725
  63.9435234  66.8598175   0.3402711  71.4113693  29.8962345  16.6961670
  71.7956848  29.0437984  16.4915028  70.7762756  30.0469494  15.9960432
  20.1941357  42.2280312  14.1490602  20.6752911  41.7273369  14.8078671
  20.8687553  42.7242050  13.6854534  22.0186806  22.0126019   3.0902846
  21.1035976  21.7594433   2.9687712  22.4600487  21.2016239   3.3427548
  42.5986862  43.0308418  83.2176132  42.6417580  42.4392204  83.9688492
  43.3626671  43.5990486  83.3161087  71.3252182  31.4718533  10.5491791
  72.0916672  31.0168476  10.8981218  71.0318375  32.0323868  11.2674837
  70.7397308  53.1083946  71.8696365  71.6750488  52.9116096  71.8178024
  70.5871735  53.7346840  71.1620178  70.2650833   7.9396610  35.4294739
  69.6061172   8.3316774  34.8564835  69.8763123   7.9785423  36.3032990
  21.4156513  42.0792770  51.7734070  21.3114204  41.2026978  51.4033089
  21.7217941  41.9269485  52.6674423  10.8620195  55.5842514  13.0754700
  11.3895702  56.0821915  12.4509897  11.2754564  54.7214088  13.1038532
  86.3786011  55.6988487  78.2926941  86.0333328  55.3791237  77.4591446
  85.9237518  56.5284538  78.4379272  86.6802673  42.3276100  20.3377571
  85.7346115  42.2389717  20.4565582  86.8562775  41.9077034  19.4957771
  66.6562042  27.6079521  51.9217415  66.4539185  26.9646339  52.6010437
  67.2913971  27.1680069  51.3567581   1.4240263  48.0293503  44.0289612
   1.2922935  48.7216606  44.6767159   2.3674755  48.0289726  43.8672981
   3.5486715   2.3687923   4.7450652   2.6952269   1.9855722   4.5425644
   4.0042162   1.6896521   5.2425385  12.5590229  48.3959808  18.7496834
  13.5099611  48.4712639  18.6704216  12.3492203  47.5607758  18.3317814
  33.5009460  69.4667358  66.8779755  34.4271698  69.2817993  66.7225876
  33.0712509  68.6143951  66.8065414  66.3777084  10.3456268  62.2452049
  67.0764847  10.6621113  61.6726875  66.6931534  10.5264959  63.1306496
  37.1051445  29.0663929  73.3185883  38.0445824  29.2000980  73.4443436
  37.0288010  28.7268028  72.4269180  68.3519211   7.7107735  57.3946991
  69.2215729   7.5134473  57.0468521  67.7524643   7.2169228  56.8352394
  28.7351952  56.3960457   5.9903159  28.1519794  56.9830132   6.4715204
  29.2935390  56.9805412   5.4776278  47.2327499  49.6154823  25.2580204
  48.0897369  49.7768898  24.8633633  46.7156639  49.2219849  24.5551586
  18.0615005  56.4230576  19.0239143  17.4530449  57.1579819  18.9470749
  18.6893463  56.7006569  19.6909828  85.9377441  25.7866306  59.2139778
  86.0963669  26.6723995  58.8876572  85.7214584  25.9071693  60.1385994
  33.9288521  15.9894953  14.9651928  34.4029388  16.7024727  15.3931351
  34.5376129  15.6599512  14.3041010  42.1903496  62.2573891  56.8671112
  41.6904640  61.6692886  57.4332237  41.6951180  63.0764732  56.8757362
  50.5928192  19.2431507  64.6393890  51.4432831  18.9064693  64.3572769
  50.5252953  20.1024036  64.2230301  79.3827286  19.0757027  38.5602303
  78.6293640  19.3770790  39.0680199  79.2799530  19.4963722  37.7065887
  78.6196747  34.1413918  58.8267479  78.5773163  34.5780411  59.6774979
  77.9600601  33.4497528  58.8794098   7.0378032  49.4968567  75.5738297
   7.3504348  50.0140572  74.8315430   6.5930543  50.1304588  76.1368408
  71.7889404   6.0971560  37.8243752  71.2846222   5.2922792  37.9429855
  71.6427155   6.3388414  36.9098053  62.8654060  38.0798416  83.1107407
  62.6833878  38.3135948  82.2005386  62.0387802  37.7237167  83.4364700
  41.1333008  15.9216061  42.0881653  42.0138741  16.1440468  41.7859344
  40.5777321  16.6200314  41.7420731   9.2732782  35.2603760  53.6927948
   8.6767597  35.3189011  52.9464874   8.9044266  35.8595276  54.3417931
  44.9642792  30.8809853   0.4163364  44.2614441  30.2325459   0.3741588
  44.5608826  31.6919231   0.1066892  66.3838959  67.8859406  55.4073677
  66.1076279  68.6408234  55.9270439  67.1677399  68.1859360  54.9471245
  62.4638367  28.7949867  59.8985443  63.1627388  28.9912415  60.5224457
  61.6592941  29.0415573  60.3547745  85.6240234  54.1358681  88.7547913
  85.9424667  54.4881592  87.9236984  85.8810196  54.7887650  89.4058685
  61.9662323  63.6995583  85.9932556  61.9235992  63.7196922  85.0372162
  62.8418350  64.0258102  86.2008820  10.6263237   2.2029142  26.7293339
   9.7238359   2.2066700  27.0482903  11.1253014   1.7787105  27.4274063
  56.8716927  34.3859711  67.5367889  57.5513916  35.0596390  67.5572281
  57.3541412  33.5598335  67.5056610  26.9376411  42.6400833  82.8287582
  26.6854668  43.5170860  83.1177368  26.1501980  42.2893600  82.4126358
  50.6518669  61.1746292  67.0788269  51.5267372  61.0632286  67.4508820
  50.8026009  61.2786331  66.1393127  62.9925194  32.9588165  55.0736351
  62.5835075  33.2043610  54.2437859  62.3100319  33.1033325  55.7290421
  38.6859550  71.1656570  38.2444496  38.5882645  70.3833084  38.7872391
  38.1178131  71.8160553  38.6572800  32.2491302  63.4254608   6.2459912
  33.0152359  63.8443451   6.6382318  31.5075607  63.7657242   6.7465177
  70.4757309  27.3181839  57.0493469  70.1924133  28.2128220  56.8607063
  69.7159042  26.7763920  56.8363876  45.7374649  63.9157257  57.2071266
  45.5195999  64.0742188  56.2886238  46.4535522  63.2812424  57.1773911
  67.2935638  21.5871983  59.6849747  66.9673538  20.9769096  59.0236359
  67.6333313  21.0259514  60.3819656  79.5088577  20.3537235  33.3647766
  79.1113205  21.1619701  33.0408401  79.8158569  19.9052677  32.5768280
  53.2244492  38.0117645  76.3963394  53.6195564  38.3531227  77.1985855
  53.3698616  38.6992836  75.7464066  26.4923477  64.4714050  86.8358765
  25.7729988  64.0739517  87.3265915  26.6206379  65.3255081  87.2485275
  62.3238106  23.6847248  61.0267754  61.8325615  23.2352962  60.3390846
  62.2208824  24.6149063  60.8257751  63.2102051  38.9797173  51.6892853
  62.7251701  39.5897446  51.1335487  64.0725937  38.9157143  51.2788925
  86.8527451  36.0146561  42.6709328  85.9279556  36.1875763  42.4946098
  87.0613861  36.5703621  43.4218636  19.5860329  46.7741241  16.5138130
  19.0970497  46.8488350  17.3332920  18.9503002  46.9983788  15.8342648
  12.6445208  52.2015228  41.1974831  11.8931885  52.4799843  40.6738510
  13.3923893  52.6465530  40.7988968  22.8356953  53.0869865   5.9792614
  23.6438179  53.5567932   5.7732267  22.7260799  52.4701653   5.2555566
  35.0793800  34.8187637  82.2582703  34.9150543  33.8773155  82.2043686
  34.3143845  35.1697121  82.7141724  72.7864609  54.4644432  58.8005905
  72.0483932  53.8745918  58.6470642  72.4880371  55.3122330  58.4713020
  49.3862495  44.1839218  43.5307922  49.4392662  45.0170364  43.0624542
  49.0562325  44.4174767  44.3984184   1.7920047  29.3813076  52.0725479
   2.3953092  28.6401291  52.0186195   1.8763310  29.6937237  52.9733887
  11.5126629  30.1461010  73.3787689  10.8627768  30.1975574  74.0796509
  11.0305290  30.3848648  72.5870819  32.2520828  52.5667343  21.7907906
  32.7838554  53.0822945  22.3971329  32.4726028  52.9120178  20.9256992
  37.3958855   2.3872366  34.6424484  36.4773064   2.5076952  34.8831406
  37.6170044   3.1720552  34.1410522  14.4571218  33.6287918  62.2285843
  14.7365618  34.4416504  61.8073921  14.9075317  32.9392090  61.7408981
  19.8990231   0.3595832  47.7561836  19.1083279   0.0818358  47.2937050
  20.4915333  -0.3891425  47.6885567  69.1753159   7.0952339  83.4727631
  68.7761688   6.2346396  83.6004105  68.5012131   7.7154717  83.7504654
  74.2483368  55.6302567  29.7454491  73.6134033  56.1715584  29.2763233
  74.3870239  56.0879822  30.5745964  48.6835899  15.4660206   9.5722933
  48.8240051  15.6309357   8.6399202  48.8450966  16.3110199   9.9919653
  11.8155632  65.8298874  23.3823376  10.9204245  66.1257935  23.5478573
  11.8506117  65.6904907  22.4359913  25.9293346  64.7993469  53.1660843
  26.8861885  64.7985229  53.1403999  25.6890907  65.7243500  53.1123161
  85.3837433  56.2491875  75.4443665  84.7166901  56.0420189  74.7898865
  86.2015228  56.2891579  74.9485092  36.2118835  38.1300507   3.9750757
  35.6504631  37.5542946   4.4942541  37.0567055  38.1098404   4.4246359
  26.7537251  61.1727676  48.6909904  27.3199577  60.5062294  49.0800133
  27.0715313  61.9990921  49.0548859  43.1797447  67.3165588   6.5178137
  44.0345993  67.7468643   6.5346932  43.3769073  66.3874283   6.6364837
  16.3562279  11.5603008  24.4727764  17.1607742  11.4199200  23.9735470
  16.1856785  10.7178736  24.8940372  15.1989841  48.7105751  18.8237381
  15.9274321  48.7640686  18.2050838  15.4036541  49.3647423  19.4918747
  76.4675293  29.6836758  59.8014717  76.7523880  29.4226894  60.6772423
  77.0573044  29.2175293  59.2089348  82.5455017  54.0147667  53.6861305
  82.1059113  54.0524864  54.5355797  81.8329163  54.0233192  53.0470848
  72.3269730  22.9343185  68.0373001  72.5130463  23.3685265  68.8698120
  72.5811920  22.0226860  68.1805725  29.7568645  62.4211540  52.7742310
  29.4135914  62.6383743  53.6409569  30.1861706  61.5737877  52.8921165
  25.0310459  47.4688187  43.7281036  24.9499321  47.6668854  44.6610680
  25.9515057  47.6373215  43.5266266  22.5193214  47.3311729  66.1190872
  21.5654316  47.3005905  66.1925125  22.6827030  47.5070724  65.1924820
  54.2977333  61.2984467  71.6212158  53.7089653  60.8836479  72.2517090
  53.8112411  62.0592575  71.3038330  40.1895676  48.1186562  18.6958885
  40.9153862  48.2151718  19.3124123  39.9260788  49.0163879  18.4936924
  82.5329132  22.9388885  50.3993492  82.5597534  23.8748665  50.5979805
  82.1601868  22.8914661  49.5189743  59.8631706  22.8834629  73.1585388
  59.5430603  22.7727680  74.0538025  59.0717888  22.8883381  72.6200943
  74.6592560  23.4302197   8.3989916  75.1415939  23.7691059   7.6448431
  74.7724152  22.4810543   8.3488417  79.4613495  39.7387009  65.1977997
  79.2692184  39.5432434  64.2806778  78.7599182  39.3081169  65.6864929
  63.6956100  55.6365013  59.8569794  63.8888474  54.7452278  60.1477051
  62.8898735  55.8694916  60.3182144  64.1213608  13.8177519  57.8047829
  63.6938248  12.9617157  57.7793007  64.6179962  13.8618517  56.9876938
  50.7464371  20.3453369  28.9443951  50.3353539  21.2083187  28.8943577
  50.8199158  20.1690636  29.8823509  72.1070404  42.4957657   1.7440020
  71.7156601  41.7362442   1.3125156  72.7831345  42.1264763   2.3121219
   7.4559526  62.0013733  41.7173004   6.7819438  61.3233414  41.7643509
   7.3067613  62.4293022  40.8741798  22.1961002  11.1303749  82.8853760
  22.3143024  10.7835073  83.7696457  22.9968014  10.8838873  82.4223938
  38.9186172  32.6428146  72.8603592  38.0225487  32.4299088  72.5996628
  39.3172417  31.7960529  73.0611649  56.8928452  39.9844627  36.9814796
  55.9671860  40.0667534  36.7520905  56.8936653  39.4865494  37.7989807
  45.8662949  61.4082565  55.7487297  45.3939323  60.5938187  55.5761070
  45.5659676  61.6801186  56.6159821   9.7711639  36.5994873  61.7887001
  10.2570601  35.7788620  61.8705978   9.0275517  36.3824501  61.2264137
  67.9477234  46.5500641  48.4206429  67.4570847  47.2011986  48.9221687
  68.6562195  46.2813530  49.0055008  29.8641186   8.9111423  16.3697529
  30.0402260   9.6963034  16.8881531  30.7300243   8.5959587  16.1107178
  52.3315277  43.5503960  73.2522888  52.7428131  44.2422371  72.7341919
  51.4911423  43.9207268  73.5221786  72.0731583  46.5878754  77.1060944
  72.1836014  46.3048172  76.1984024  71.7186661  45.8203125  77.5548935
  40.0491142  51.7808113  28.6735935  40.3416672  51.8147049  27.7628269
  39.9467659  52.6982803  28.9265823  54.3845673  50.3141365  68.1551895
  53.5460510  50.5897827  68.5255203  54.4220772  49.3723412  68.3220520
  80.8773880  40.4868279  25.1321507  80.8585815  41.1448441  24.4372425
  81.4004517  40.8869629  25.8267956  35.4163704  69.2659607   0.1674836
  34.5157089  69.1237717  -0.1237640  35.3581734  69.2905807   1.1225954
  23.1078758  33.7748489  66.1990433  22.3133831  34.1985779  66.5238037
  22.8941612  32.8418846  66.1875534  49.2818108  14.9368744  47.6332397
  48.8702202  15.5351753  47.0096512  48.5538673  14.5915794  48.1500626
   3.9307528  43.7735863  57.2037239   3.3133690  44.3194695  56.7168159
   4.3194838  44.3667030  57.8466301  77.7725983  21.5289688   2.1927674
  78.3107986  20.9440365   1.6594565  78.0867310  21.3947048   3.0869281
  36.7295837  26.1390324  20.6366348  36.8507271  25.2341919  20.9244194
  35.9916420  26.4587078  21.1557484  74.4163284  10.3750162   9.4305878
  74.5984039   9.7804222   8.7028933  74.7661285   9.9259138  10.2001181
  45.4594917  48.2829514  75.0678177  45.2602692  48.9794083  74.4421234
  45.5583191  47.4979897  74.5290298  37.6808586  36.6711731  75.9077530
  37.2385597  37.5153999  75.8189621  37.9479752  36.4458313  75.0166321
  25.9917316  47.7624245  21.5910683  25.6978016  47.7441177  20.6802979
  26.6678066  47.0864525  21.6381874  54.6509666  52.3256073  58.3552856
  55.2242165  51.9025803  57.7160149  54.1632042  52.9740105  57.8474541
  74.9094086  32.5731850  42.1322594  74.3893890  32.9187737  42.8577805
  75.8157501  32.6452408  42.4315605  59.5783615  12.4950323  85.9152527
  58.9657059  12.8562365  85.2746201  60.1202888  13.2400913  86.1749420
   2.4681447  64.0408478  17.9745560   2.5573027  64.9807892  18.1320248
   3.3252318  63.7708855  17.6447773  52.9559364   8.7758741  49.6955147
  53.7173615   8.2235203  49.5184021  52.9083824   9.3664408  48.9437141
  49.7576637  22.2822495  36.8441849  49.8506813  22.1669159  35.8985252
  48.8775253  21.9605007  37.0392914   3.5723403  13.0460014  74.2124023
   3.4936852  12.9171619  75.1576233   3.8592887  13.9542370  74.1175308
  80.7267380  55.0606079  44.6021729  80.6931458  54.7503586  43.6972694
  80.5231857  54.2872620  45.1282272  69.8022232  46.6282539  74.1954575
  69.3922806  47.4775009  74.0312805  69.1324234  46.1243248  74.6576767
  42.1552696  58.1112137  59.9732971  41.9718399  58.1917725  59.0372963
  43.0013046  57.6653481  60.0140610  22.3938065  59.4567299  44.9791603
  22.2740059  60.1680183  45.6084061  22.5143948  58.6762428  45.5200195
  14.0917253  63.9138374  16.3675900  13.2371988  63.5636215  16.6193104
  14.0770626  63.9163322  15.4105053  80.5720978  49.9827538  58.8856544
  80.7278519  50.9258690  58.8355484  80.1028366  49.7742462  58.0778465
  57.9666214  33.8159370  14.1702623  57.2657318  33.5269318  14.7546091
  58.4398041  33.0138855  13.9488049  32.9149513  17.1639977  76.5430145
  32.6061478  16.7371979  77.3422165  33.7179527  17.6134644  76.8064575
  64.0775146  54.1999474  62.3601799  63.4169464  53.7351799  62.8738632
  64.8953934  53.7401161  62.5495720  44.8129005  42.7511292  81.2623672
  45.6026459  42.8588791  80.7323532  45.0860863  42.1895943  81.9878235
  31.0660210  41.9840431  77.5412903  31.4494476  41.1082535  77.5882874
  30.9766979  42.1564102  76.6039810  62.8651543  19.6051579  59.7759895
  63.7636566  19.2777748  59.8178024  62.8015823  20.0211697  58.9162674
  23.7890663  38.3187218  80.0107498  23.9860592  37.9415092  80.8681488
  23.6785164  37.5615692  79.4356537  81.6377563  38.2418594  28.7603741
  80.8599701  38.7872314  28.6427193  81.4905853  37.7909660  29.5918007
  10.5501804  45.9096298  62.1033592  10.6937561  46.5098724  62.8350182
  10.0689278  46.4284592  61.4588127  44.5025253  23.5499840   0.8672526
  43.9800072  23.0370655   1.4837952  44.0941582  23.3902206   0.0164039
  17.2890148  57.6461678   4.3199654  17.4484921  57.2436409   5.1736469
  16.6435947  58.3310471   4.4949141  79.9537125  68.0454407  51.6320534
  80.3643341  67.3894882  51.0687103  79.2736588  68.4388428  51.0852547
  41.5160599  21.4581795  43.3829231  41.7311134  21.7757874  44.2599106
  42.3057289  21.6237316  42.8679047  65.5595627  11.9091301  31.0059853
  66.1487961  11.1715450  30.8478584  65.9594727  12.6403542  30.5352249
  23.6737041  69.7574539  66.7054062  24.3309536  69.8827133  66.0208893
  22.9948978  69.2247314  66.2910843  31.0076084  17.0173435  78.7287598
  31.2154331  16.0832462  78.7063370  31.1710224  17.2773685  79.6353607
  22.4178944  10.3286877  38.1695709  22.9455891  10.2295485  37.3771439
  22.3952541  11.2727995  38.3256912  55.6680908  43.9626236  57.4703865
  54.7638779  44.0755157  57.1773224  56.1393738  43.6759109  56.6881332
  55.7060890  26.0914078  82.2617264  54.9398384  25.5240517  82.1768646
  55.4133453  26.8063202  82.8269119  67.9235153  40.8093491  28.0890427
  68.2052765  40.5021629  27.2273712  67.5268250  40.0408936  28.4993439
  27.2957840  50.3751984  36.5272369  26.3843613  50.2427750  36.7880173
  27.7590427  50.5366287  37.3491631  10.7371588   0.4817764   5.0097346
  11.1818504   0.7816463   4.2169170   9.8199110   0.7196158   4.8743811
  39.0699081  69.9020386  81.9801788  38.9093018  69.4708862  82.8195496
  38.3026161  70.4583588  81.8459854  79.9892197  40.6257820  68.4466171
  80.1809387  40.5774384  67.5100555  80.3097992  39.7959213  68.7998657
  36.5685959  27.8448601   8.5277309  35.9975967  27.0870075   8.4018173
  36.1675453  28.5368996   8.0019236  56.9192390  39.5573349   7.9421411
  56.8955002  39.6244431   6.9875917  56.0030060  39.4500427   8.1975594
  52.9900169   2.5978651  52.4370918  53.0447006   3.1680679  53.2039719
  53.1104202   3.1864614  51.6919136  36.3394737  40.3956413  88.3809433
  36.6854172  39.8019905  87.7145081  35.4112778  40.4839859  88.1644363
  63.1990967  67.9719849  78.0737457  62.8427353  68.1230927  77.1982956
  64.0832672  68.3370056  78.0387192  20.6798553  36.3011780  22.5300026
  20.6434116  36.0290413  21.6130257  21.0329170  37.1904488  22.5020752
  71.4983215  53.8172150  76.7116699  70.9181824  54.2089043  76.0587845
  72.0573044  53.2237663  76.2100830  48.5201797  56.5443535  50.7552643
  49.1380157  57.1614418  50.3631973  47.6773567  56.7646561  50.3586006
  75.9060898  18.5427589  13.4653902  76.3158951  19.2260132  12.9348650
  75.0246124  18.8720875  13.6407757  13.1686935  19.6274300  54.2999420
  12.5238323  19.9144592  53.6534157  13.2608709  20.3727131  54.8934784
   9.5616255  27.5574188  81.5968323   9.7682018  26.6620693  81.3286743
  10.3514366  27.8618450  82.0437698   3.3426926  61.8843651  71.1347275
   2.4620609  61.9062538  70.7602463   3.2087259  62.0336113  72.0706863
  79.1312714  65.8122635  89.1275406  79.5173721  66.3842087  88.4641876
  79.8087616  65.7329102  89.7990646  56.8981552  24.5397739  23.6581554
  56.2672844  25.1178493  24.0871811  57.2287292  25.0517559  22.9200306
  82.9066925  50.3699226  61.8012276  82.9814529  50.6220322  62.7215958
  82.1830902  49.7436028  61.7824707  32.4496155   2.2335274  25.0072498
  31.8971157   2.9546158  24.7055740  31.9500656   1.8297334  25.7169209
  57.1451683  70.8333130  74.0185165  57.0644379  71.7570572  73.7810059
  56.6194382  70.7435455  74.8133621  82.9075546  38.4090080  21.5199585
  83.1183929  39.2115326  21.9971771  83.3932571  38.4841690  20.6985683
  34.9265594  67.1662292  68.8265686  35.2766037  67.8175812  68.2187500
  34.6973572  66.4202271  68.2723236  37.8564415   0.6820056  28.5086231
  38.3231049  -0.1385813  28.6670361  37.0244484   0.4130558  28.1191578
  49.0967064  45.8792229  39.9895248  49.8378448  45.8315887  39.3856430
  48.5154762  45.1712646  39.7116737  83.7645187  70.5354080  14.2360001
  82.8960037  70.4065781  13.8547926  83.6304703  71.1896667  14.9217119
  82.6300278  12.6090460   5.8906412  82.0469589  13.3679256   5.8714714
  82.4197922  12.1661835   6.7127771  64.2893219  52.4250183  72.0549545
  64.5543060  53.3324051  72.2055054  63.3409729  52.4695396  71.9329910
  75.7554245   6.7445168  83.0877533  76.0863419   7.6059055  82.8333206
  76.1319427   6.1437678  82.4446564  80.5129013  21.6723061  84.4340134
  81.1866531  21.0130024  84.2678604  79.8029709  21.4459667  83.8331833
  44.3869362  31.4824009   6.6784930  45.0126152  31.3986835   5.9589443
  44.8833084  31.9046535   7.3795991  33.1347008  67.8653717  61.9797211
  33.3501549  68.1685638  61.0977440  32.3405647  68.3470154  62.2112389
  38.9335213  12.2466841  77.3922653  38.8443756  13.0230970  77.9449539
  39.7555161  12.3814812  76.9206772   4.6537962  56.3452911  49.1941948
   5.1416059  56.8431816  48.5381660   3.7443173  56.3863716  48.8985748
  23.3943214  59.9600716  23.5972195  23.2277126  60.8977776  23.6930256
  24.3460293  59.8925400  23.5202560  71.2713928  39.4472313  80.1017303
  71.2187347  39.4746399  81.0570908  72.2012634  39.5682106  79.9095383
  48.9887733  39.9360962   2.6171849  48.6886978  40.4343643   1.8569765
  48.3577232  39.2210579   2.6991906  44.2308998  10.1868305  87.2956543
  44.5512009   9.4114799  86.8347092  43.2836113  10.0599155  87.3482590
  53.5606651  19.7227230   6.6216340  53.5043716  19.3910503   5.7255001
  54.3886681  19.3758907   6.9538221  62.3144073  60.3409119  26.1206417
  61.8019867  59.9713974  25.4015350  61.8159561  61.1088448  26.4000340
  18.2747517  58.7779884  80.9455872  17.6134968  58.0971985  80.8210831
  18.2656631  58.9514313  81.8868942   9.1773405  13.0200243  79.2579880
   9.5396509  13.4301147  78.4726334   8.2992182  13.3922396  79.3391647
  29.3894539   1.4824191  20.6620541  28.9886684   2.0174432  21.3471470
  28.9544411   0.6330146  20.7362709  44.5582619  28.6117649  79.4922562
  43.6200294  28.4771576  79.6257782  44.9740334  28.1181507  80.1991577
  20.7373886  38.7697029  53.5812035  20.7321396  37.8892136  53.9566231
  20.5467529  39.3465919  54.3208580  40.9825821  30.2681122  53.8863792
  41.8883018  30.1874733  53.5873718  41.0336151  30.8374519  54.6541557
  21.5525284   1.4505218  68.7525940  21.1318989   2.1854935  69.1988220
  22.2686806   1.8488019  68.2578888  50.1908150  42.1069527  50.0709953
  49.6167984  41.3809013  49.8268890  51.0112228  41.6871262  50.3296661
  84.2978745  26.8292522   6.7546411  83.8060150  26.0459423   7.0010900
  84.0311279  27.0055676   5.8524251  31.6567345  14.5514383  78.5409927
  32.3791847  14.0263948  78.8854141  31.0507412  13.9104462  78.1693268
  18.4989815  15.4771814  14.6471834  19.0933399  15.0674667  14.0186100
  17.6362133  15.4136581  14.2375154  65.0214081  46.6743889  69.3572311
  64.9636383  47.1385880  70.1923370  65.0324326  47.3681526  68.6978302
  39.2178917  45.1171913  22.8317184  39.4285164  45.4953003  23.6854763
  38.4067421  45.5529976  22.5702934  70.8470612  31.7140160  23.7960720
  71.2065964  30.8786697  24.0946712  70.2318115  31.4757614  23.1025753
   9.5032129  65.1367950  65.2621613   9.0522423  65.1436005  66.1064453
   9.7562695  64.2227097  65.1331635  74.6452484  23.8840351  73.5354156
  74.7414322  24.7715340  73.8808517  73.7902756  23.5944386  73.8538208
  55.9416122  52.2156181  49.4253807  56.7272034  52.6955833  49.1632462
  55.8253136  51.5552406  48.7422943  70.4175262  26.7390423  80.0990143
  71.3623886  26.8921394  80.0940475  70.2602768  26.1871872  79.3328857
  65.1368179  23.8974400  81.5012360  64.4650269  23.4215946  81.9896011
  65.9650269  23.5540695  81.8364944  23.6097622  51.7894135  61.7662468
  24.0040836  51.2604561  62.4597473  24.2607937  52.4664726  61.5819054
  73.1597137  15.8138332  42.3847160  72.4177170  15.2462749  42.1760368
  73.2633133  15.7337055  43.3329124  66.9230652  65.8561172   6.8697624
  66.6204147  65.3491974   7.6231985  66.7003708  66.7617493   7.0853357
  26.9659653  49.4999771  18.9704781  26.0196877  49.5057259  19.1145554
  27.2988205  50.1955070  19.5376453  74.8504562  63.4722595  58.5045624
  74.2625656  63.8672523  57.8606720  74.2710571  62.9868889  59.0918770
  45.5085335  54.2898216  87.3064117  45.6726456  55.0555305  86.7559738
  46.1316032  54.3755798  88.0279770  58.9844742  26.2437954  68.2860260
  59.6378174  26.8210850  68.6811295  59.4671669  25.4444771  68.0754776
  48.1071358  61.9198303  65.6868896  48.0231895  62.3636436  64.8429565
  48.2477303  62.6270065  66.3164597  69.5113297  14.6559029  70.8228226
  69.6267242  14.2470407  71.6805801  70.3142853  14.4443245  70.3466644
  81.6533813   2.1749575  70.4337082  82.3897476   1.5828286  70.5866318
  81.0294724   1.6553358  69.9267960  65.9984207   7.9655385   6.5957026
  66.4803925   7.3596601   7.1585908  65.8166885   8.7199821   7.1560793
  76.7541962  47.8280754  13.3440723  76.0345078  48.4560318  13.4069262
  76.3537140  46.9833984  13.5498934  10.4278421  59.1573677  14.1094437
  11.0501785  58.4901466  14.3988295  10.8059435  59.5029259  13.3008280
  60.2493286  19.7523594  26.4399815  60.7021103  20.3937149  25.8923645
  59.3238640  19.9854851  26.3664665  46.2263985  61.6236763  59.9292831
  45.4465675  61.3578873  59.4419937  46.0639648  62.5381050  60.1609497
  69.7801285  41.9525986  25.9099102  70.3359604  41.3190880  25.4560966
  69.9370117  42.7791634  25.4533901  63.3836823  10.9560003   2.1777453
  62.9201508  11.4700727   1.5166110  62.9214211  11.1437759   2.9946208
  47.6307793  38.7430115  35.8776283  47.4241791  38.8063583  36.8101196
  47.1446571  37.9755096  35.5762062  19.2562733  10.4589777  14.1877813
  19.8102360  11.0650349  13.6957932  19.0867157  10.9079819  15.0159588
  20.5584660  58.1245537  88.8903351  20.7541962  57.2381973  88.5865326
  20.8541985  58.6924057  88.1787796  13.3734198  60.4161530  22.0146961
  13.5920277  61.1575623  22.5792789  13.4931059  59.6472168  22.5720520
  25.0416698  52.0188828  87.4212494  24.1139603  52.2516975  87.3840485
  25.3901482  52.2868881  86.5709686  66.4115753  27.6364613  10.8521042
  66.4479065  27.7394714   9.9011574  65.8987579  26.8396034  10.9872770
  72.7239151  15.9059763  15.6864986  73.4569931  16.0890846  16.2741222
  73.0287323  15.1798868  15.1423359  31.9648151  57.1392784  79.4129410
  32.3546829  57.4305038  80.2372131  31.2600880  57.7653999  79.2469101
  14.7959127  51.0397949  51.5831718  15.0256100  50.7914810  52.4786110
  15.6227179  51.3248177  51.1940880  22.2621174  64.5871429  85.4347076
  23.0717506  65.0707626  85.2709045  22.4439182  64.0757980  86.2231903
  57.8348808  31.2149563  63.7934837  57.7349930  31.5442028  62.9002571
  56.9407730  31.1643238  64.1314774  53.6481056  41.3492432  57.7930794
  53.8475456  42.2842865  57.7467003  53.2688637  41.2281227  58.6635590
   8.3244858  67.8440704  53.5454979   7.7420344  68.5026779  53.9239311
   7.8937950  67.5827560  52.7315865  33.8053970  23.5134048  85.5536423
  34.5921135  24.0581570  85.5301819  33.6677818  23.2520847  84.6431427
  30.0254021  39.8376579  71.8172913  29.7480316  38.9280548  71.9264526
  29.3249092  40.2418556  71.3052673  58.1477814   1.3814611  59.6110764
  58.2415428   0.9113670  60.4395981  57.6353264   0.7919112  59.0578537
  16.2072258  67.5979080  83.0657883  15.3354511  67.5983582  83.4610596
  16.5567265  68.4685669  83.2556229   7.1156993  61.2913933  49.9192047
   6.7489533  62.0475121  49.4609337   6.4397221  61.0423126  50.5494804
  18.9499931  27.9011955  79.5512466  18.1449490  28.2976818  79.8843155
  18.8024311  27.8144817  78.6094742  55.0067673  42.6194115  20.7879086
  55.0977669  43.1461639  19.9938812  55.4921341  41.8162117  20.5994282
  84.2369156   5.7528791  32.9476242  83.6986542   6.4451461  33.3313866
  83.7206268   4.9553957  33.0646515  25.1985874   6.3499818  84.6267395
  24.8932705   5.9762955  83.8000717  24.9247208   7.2664680  84.5909271
  60.9437637   1.3900346  62.8284645  61.1519928   1.5946901  61.9168777
  61.3604240   0.5425907  62.9848824  75.6892319  51.2564049  41.8823929
  75.7240143  51.3092194  40.9272842  76.2523193  51.9699631  42.1823921
  22.5032349   7.8194747  72.2710571  22.9968891   8.4579306  72.7857513
  21.7710533   8.3184624  71.9089050  45.3782730  12.5327187  73.0527954
  44.8739510  12.4442167  72.2440567  46.1602249  12.0002680  72.9069214
  68.4366455  52.5021935  64.1196518  68.1627884  53.4124527  64.0071259
  67.6748657  51.9880676  63.8520584  27.3112545  38.5743446  52.5805550
  27.8506966  38.3787956  53.3467102  27.3545456  39.5266304  52.4938965
  69.9752045  47.5768280  46.7183800  69.8007584  47.6191444  45.7781639
  69.1940079  47.1659088  47.0886650  81.0744629  52.0489616  20.9744148
  80.9503708  52.1461067  20.0302792  81.9722900  52.3424149  21.1294270
  85.8970795  30.6766205  81.6464920  85.3295593  30.0495472  82.0947495
  86.0237808  30.3038673  80.7740097  84.9952469  35.9049377  36.0940819
  85.5317001  35.1139679  36.1471710  84.1951294  35.6223946  35.6511230
  56.1550102   9.9610682  70.8645554  56.7071648  10.6540041  71.2267609
  56.2231026  10.0716715  69.9162064  66.4423218  13.9585886  35.1776619
  65.8627396  14.5363922  34.6812134  67.1408386  14.5325871  35.4920387
  34.6789665  47.4014397  80.8921890  35.5396080  46.9884224  80.8218918
  34.8134079  48.1344299  81.4929199   5.3715391  30.0715599  75.5104141
   5.9222922  30.5862579  76.1003189   5.0593014  30.7030144  74.8623352
  20.5306740  46.0621643  80.2504959  20.9118252  46.7372246  79.6890259
  20.4812222  46.4696732  81.1152039  10.1486044  25.3618698  10.9123964
  10.0793009  25.3506870   9.9577742   9.6164093  26.1102581  11.1824236
  19.3040943  65.2053680  16.9370213  20.1906319  64.8505554  16.8707314
  18.7339954  64.4673920  16.7211246  45.8286743   5.5580211   1.4740031
  45.0252838   5.5814080   1.9938581  45.7805748   4.7301683   0.9959041
  32.6295471  56.4932861  32.0435295  31.9339294  57.1007423  32.2952118
  33.1212006  56.9591293  31.3671417  14.1805315  21.5139828   8.4706879
  13.8138428  21.7110767   7.6087570  14.2584982  22.3667068   8.8984928
  23.2120380   0.6090328   2.0621319  22.3750763   0.9928536   1.8005822
  23.6539745   1.3059309   2.5471642  59.4586983  51.9472237  38.0053215
  58.8870201  51.6403961  37.3015633  60.3336868  51.6581650  37.7463417
   1.4243791  45.0961456   2.9592450   2.1882389  45.1060944   2.3824859
   1.7891911  44.9925270   3.8381121  57.3892670  21.9263573  71.6735458
  56.5817146  22.3623619  71.9455566  57.3176079  21.0426826  72.0344009
  40.4893723   5.3134918  43.8025169  40.3983307   5.9981532  43.1398087
  41.3755875   4.9744401  43.6764297  63.7863693   7.6162410  76.2007294
  64.2020340   6.9505072  76.7486877  63.3743210   7.1207762  75.4929428
  69.7605743  32.1469040  86.3542557  70.0873108  33.0012474  86.0721664
  70.2249222  31.5184307  85.8014145  77.6215363  19.2563610  60.0797844
  77.8743973  19.8152008  60.8146248  78.2742767  19.4393749  59.4040108
  54.1276665  31.1012478  62.3531303  53.3068008  31.5208263  62.6107483
  54.7553329  31.8212185  62.2905769  77.6010361  27.5244770  85.3911285
  78.1595917  27.5643673  84.6148148  77.3243866  26.6094513  85.4403839
  54.2403336  41.7041626  71.7750854  53.3257332  41.9705887  71.8686752
  54.6623764  42.0105133  72.5777435  52.0674019  37.5645142  47.8252487
  52.6740875  36.8596878  47.5985718  52.5419312  38.0914612  48.4681969
  76.2680664  50.0110550  18.9779415  75.6114807  50.1220512  19.6655464
  75.7825012  49.6413078  18.2405491  62.3430748  63.4245529  52.2742195
  62.3518829  62.5466652  52.6556168  61.9123955  63.3131599  51.4266663
  17.4637871  54.0356598  12.8589172  17.1920242  54.4482040  13.6787863
  17.0649853  53.1658783  12.8847542  72.1254730   7.1903453  51.6178093
  72.1025848   7.9487553  52.2013512  71.2047195   6.9815946  51.4601212
  59.1518211  49.5492210  69.1680908  58.7076645  48.8060989  69.5764084
  60.0613518  49.2647552  69.0782547   2.6741652  25.6481876   5.5917726
   2.2266309  26.3545990   6.0575275   2.2005217  25.5695477   4.7636967
  17.6050568  47.3935432  39.9739418  17.3691025  47.0829544  40.8480644
  18.5578575  47.3088875  39.9387779  15.2883396  10.2397909  17.6252518
  15.1578369  10.7493601  18.4249649  15.5147333   9.3626432  17.9344273
  51.4764519  40.1689072  87.5268326  50.7609863  40.7151680  87.8523178
  52.0278969  40.7699280  87.0259247  14.5146666  18.4759140  77.0096817
  13.8835058  18.7084064  77.6907196  13.9788170  18.3019009  76.2358475
  84.2080002  42.2204552  78.7388382  85.0872192  42.5978279  78.7671051
  84.2506866  41.4691544  79.3304062  24.6874352  27.9572144   1.3813765
  24.9467640  28.8258343   1.0740031  24.1011124  28.1290646   2.1182115
  59.2401581  39.4521866  29.7854023  59.0899773  38.9159584  30.5639515
  58.7109222  40.2367020  29.9291801  28.6388283   2.2838445  84.6131134
  28.4460621   1.9885401  85.5029831  28.4785156   1.5151840  84.0656662
  23.9981136  69.9611588  75.7395096  23.7481823  70.7298050  75.2267303
  23.8729668  70.2294540  76.6497726  45.2646637  25.4242077  34.1659393
  44.8341141  24.6770248  34.5813560  45.0550461  25.3349400  33.2362480
  81.7281647   8.9487848  76.5756302  80.8117294   8.7051458  76.7060547
  81.7217789   9.4918680  75.7874374   7.9374027   2.0471907  58.4339676
   7.5014977   2.3775558  57.6484222   8.7547369   1.6667737  58.1122818
  58.3498917  67.2256775  19.4207287  59.2316628  67.3566208  19.7693863
  57.8099976  67.0553360  20.1925640  75.1543121  14.1711769  67.2295380
  75.2377625  13.9834347  68.1644287  75.6625977  13.4827242  66.8006821
  57.7427139  19.2656231  72.8098450  57.5057907  18.4314194  72.4046249
  57.1551094  19.3421803  73.5615692  79.0801086  40.4510612  80.7644882
  78.4829712  40.7667847  81.4427032  78.5165024  39.9841423  80.1475830
  43.4407272   1.0548309  51.8368149  43.2053490   0.8392238  52.7392235
  43.0050850   0.3854529  51.3092003  44.0862961  18.8176785  29.1848030
  44.0547180  18.1251183  28.5248070  44.8492889  18.6026459  29.7213039
  69.8751450  41.1475792  30.1854763  69.3149033  40.8177223  29.4829445
  69.3480148  41.0491982  30.9783726  40.2004089   3.0509789  67.0054779
  39.8661118   3.1416447  67.8978119  40.0393066   3.9036968  66.6015625
  33.6083527  18.0797768  71.0421295  32.8835945  18.3545990  71.6037598
  33.3361778  17.2285595  70.6992264  82.0483246  16.2696209  37.6469002
  82.6566696  16.9742718  37.4241486  82.6071472  15.5040426  37.7804642
  28.8792439   7.2139606  80.5056610  28.5134888   7.1613374  81.3886566
  28.3978291   6.5536089  80.0072556  28.1259403  30.9826756  88.2911530
  27.5192528  30.3823013  87.8579025  27.9383812  31.8360939  87.9003448
  70.3998413  25.0140114  69.5812683  70.2616653  24.5260010  68.7694931
  70.8726501  25.8008938  69.3101654  65.5474091  39.6047897   3.4850538
  65.2041168  40.2052689   4.1467252  64.7771378  39.3318291   2.9866507
  44.8902817  60.2145081  72.8275299  44.4027481  60.0484619  72.0207062
  45.6047630  59.5777397  72.8109970  39.7796211  52.9409752  13.2839413
  40.3519592  52.7678871  14.0314054  40.3789024  53.1366806  12.5636692
  63.7833252  46.8370018  64.0273895  63.5240669  47.3231201  63.2446365
  63.0979156  47.0299149  64.6671066  24.4771385   3.8403785  71.3684921
  23.5771122   3.9901218  71.6579056  24.5763302   2.8883734  71.3773727
   9.3327494   5.3763924  62.0912895   9.7878485   4.5402732  62.1913948
   8.7018633   5.2229881  61.3879509  47.0735245  15.4301434  60.5542374
  47.4168930  14.6017122  60.8889465  46.5423584  15.1811323  59.7978706
  11.2285376  31.3178406  87.7601166  11.8189535  31.4736099  88.4972610
  11.7939301  30.9725704  87.0692139  -0.0892184  21.8160286   1.3802342
   0.4740638  21.9045086   0.6113935   0.4423822  21.3320255   2.0121944
  85.1150589  43.3395195  11.9703026  85.7785568  43.8086586  11.4644260
  85.4988632  43.2484627  12.8424463   3.7205076  65.3545227   2.6885519
   4.6256948  65.0592117   2.5902717   3.7714047  66.3082123   2.6244018
  31.9039822   7.6360617   0.0741925  31.8625870   7.2650046   0.9555749
  31.7333317   8.5696106   0.1990819  83.9215393  62.8735199  72.2940292
  83.8312073  63.4171524  73.0766754  83.7317505  61.9853020  72.5961609
  67.4102020  43.9384308  18.6980076  67.1042862  43.2269249  19.2605057
  67.5848236  43.5193634  17.8553200  77.6269760  41.2469063  82.6662979
  76.7710266  40.8209267  82.6203384  77.4610672  42.0686302  83.1283340
  29.4052887  55.6420250   9.8570671  29.0057964  56.3825874   9.4007692
  30.3287048  55.8806381   9.9383078  13.1188612  60.8845100  51.4387779
  12.9614229  60.6630440  52.3566017  13.2390623  60.0393982  51.0056877
  10.8362617  45.4095421  25.8694096  11.3920135  45.8994217  26.4755363
  11.1384478  45.6738586  25.0004730  11.1094007  24.3709393  18.1603756
  10.5094872  24.1125355  17.4606876  11.0589018  23.6563549  18.7952385
  54.4468346  35.2380219  49.1039162  54.3420334  34.2922211  49.2073860
  55.3914719  35.3819199  49.1603165  28.1498909   1.6099938  43.6468544
  28.7073002   1.1951295  42.9885139  28.2792225   2.5489120  43.5129242
  47.9945107  66.9807587  46.2592812  48.2688484  67.8049469  46.6613884
  48.0196190  67.1534119  45.3181152  48.6869545  40.3019409  86.9575729
  49.4988174  39.7991562  86.8918533  48.0379295  39.6696014  87.2660294
  56.4145699  38.0082207  21.4949932  56.8712387  37.8694954  22.3247166
  55.8116188  37.2679329  21.4267693  21.2226067  47.3267479  14.3949537
  21.0989819  48.2759285  14.3927584  20.7391891  47.0240288  15.1636543
  83.2069397  51.4612007  71.3578873  83.8709793  51.0121574  71.8809891
  83.3859177  51.1882057  70.4580688  52.1819916   6.4696221  15.8719301
  52.8655357   7.0075760  15.4724283  51.3628731   6.8909917  15.6116877
  76.9125366  58.0425186  70.2613831  76.4220276  58.5563087  69.6197815
  76.8227615  57.1375656  69.9626617   7.8906817  41.1649704  32.6050835
   8.8439579  41.1820335  32.6899681   7.7166562  40.4404373  32.0042496
  19.6255436  71.5228119   6.0716166  19.3557606  71.2374039   6.9445381
  20.5424252  71.2560883   6.0051451  85.1439514   1.0105144   4.1067328
  84.9358521   0.1032892   4.3300500  84.5280228   1.5313551   4.6220880
  54.1418381   9.5244722  76.8819962  53.5906372   9.0692434  77.5185242
  55.0186615   9.1688786  77.0267944  46.2032967  29.5663662  13.7951336
  46.4091034  28.7669506  13.3105640  45.3160553  29.7934475  13.5168009
  65.4701843  64.7763367  49.3041496  65.1498260  64.5391388  50.1744041
  64.6867828  64.7831192  48.7541771  85.8567886  24.9488449  30.4977608
  85.4967957  24.2098083  30.0073910  86.4013062  24.5453186  31.1736984
  52.1228790  20.6681499  20.3661499  51.5858955  19.9253635  20.0902004
  51.5169373  21.2396240  20.8378296   1.6859132  27.4393654   1.2170373
   2.3927112  26.8319435   1.4354572   0.9708498  27.1961956   1.8050722
  16.3189545  28.4455223  79.9158325  15.7323341  29.1467915  79.6324081
  15.9594765  28.1569405  80.7547226  73.4414215  13.3637896  54.1523170
  72.6384277  13.4160995  54.6706734  73.2020264  12.8327379  53.3927727
  69.8372192  17.8443775  30.4535332  70.0973892  18.3964920  31.1909046
  70.5394211  17.9544830  29.8124199  70.1219711  26.4150257  38.6057587
  70.6842117  25.7018223  38.3033371  70.5630875  27.2105618  38.3078041
  41.7101707  35.5186539  27.0067406  41.7452354  36.3077583  26.4660797
  42.4840736  35.5775642  27.5669518  85.6214142   5.4778924   5.7102771
  86.3875732   4.9146361   5.8196940  85.3732986   5.3690863   4.7922182
  63.8990593  63.5976791  28.3956509  64.1930237  63.1763802  27.5879860
  64.2969208  64.4679108  28.3703766  26.4809208  64.8707047  10.0423479
  26.9455643  65.5569305   9.5633583  25.5861130  65.2003632  10.1252575
  37.4127655  10.9465895   9.3128023  37.1453171  11.6807127   8.7598400
  36.7961655  10.9610300  10.0448065  55.4602737  66.2773819  75.0160370
  55.6253624  66.0177383  75.9224396  56.0833893  66.9853287  74.8524094
  72.4026489  27.4100704  50.5380402  73.0775070  28.0482445  50.7694054
  71.7190628  27.9278717  50.1128044  48.8206673  68.7695694  48.2276955
  48.7905312  69.5960083  47.7457008  49.7543144  68.5972137  48.3494568
  56.8052330  53.5482788  41.7053185  57.2137642  53.5278969  40.8399200
  56.1164703  54.2086563  41.6295395   9.8570614  50.3620720  10.4649601
  10.6024303  49.7948761  10.2676201   9.1403666  49.7574806  10.6574326
  41.8801956   7.3943086  73.0564499  40.9875603   7.0649090  72.9519119
  42.4367218   6.6823473  72.7408218  51.7453690  28.3609829  46.2518387
  50.9125252  28.1418152  46.6696510  51.6082001  29.2359180  45.8886490
  69.1249619  13.9662113  65.3529739  69.0197906  14.0925322  64.4099960
  68.4170303  14.4784746  65.7436829  48.1587143   9.2285357  47.0280457
  47.7800636   8.6413298  46.3737907  49.0954590   9.2341328  46.8312950
  56.8973083  30.1570339  82.2911301  56.9847984  31.1102085  82.2853165
  57.7650909  29.8383694  82.5393982  -0.2108072  63.2385445  30.7363129
   0.5966789  63.6683197  31.0182571   0.0564357  62.3454208  30.5192013
  82.8766632  54.8811455  37.8629036  82.7260361  53.9436188  37.9836617
  82.4820251  55.2884102  38.6340256  18.3950195  60.1584206  17.7045803
  18.8048801  60.8956604  18.1570415  17.7790089  59.7983322  18.3426228
  64.0149536  44.2314491   3.9768784  64.5170593  44.2938881   4.7894187
  63.3594475  43.5561790   4.1516829  70.2344971  10.7328453   4.8190818
  69.4269943  11.2373028   4.9175086  70.2538910  10.1598654   5.5855994
  26.3467331  56.4410706  18.6392536  25.6208000  56.6746864  18.0607414
  26.9380341  55.9295769  18.0870113  31.2779083  30.3644924  76.5255737
  31.3404503  31.2264690  76.9370575  32.1780968  30.1500492  76.2808151
  76.8111191   7.5593176  61.3540115  76.5368958   8.4601574  61.5258255
  76.6480331   7.4334569  60.4192429  71.3083878  18.0528011  53.1843529
  71.7817841  17.9580860  54.0108871  71.9157333  18.5227776  52.6129723
  86.9696198  10.5301809  57.3795700  87.3374176   9.6954479  57.0894356
  86.0541229  10.3327169  57.5773048  73.4199142  64.4914856  26.2081604
  73.3646927  65.1280823  26.9208488  72.5113831  64.3509445  25.9416180
  51.0044937  21.6291637  13.0644598  51.4927597  21.6518021  12.2414665
  50.3033066  20.9962406  12.9096212  45.5328369  16.4485340  85.1565933
  46.2398796  16.4296494  84.5116425  45.9802895  16.4427528  86.0027542
  45.0525208  59.3744659  32.0085716  44.5742035  59.8167305  31.3072567
  45.6131325  58.7444305  31.5558033  56.1251068  29.9842072  26.3285656
  55.6282120  30.3672485  25.6056480  55.7238693  29.1262417  26.4668922
   0.4172226  70.2500687  35.2880974   0.6992586  69.9886322  36.1646461
   0.7790910  69.5785675  34.7098427  53.2850990  60.6937943   3.2864745
  54.1744041  60.8333092   2.9610531  52.7652016  60.5294418   2.4997537
  74.5052795  12.8965578  10.4582090  74.7731857  12.0215797  10.1773653
  73.7377930  13.0957003   9.9219751  51.0163841  63.7145500  42.9209633
  51.9566345  63.5368233  42.8971176  50.7303391  63.6130142  42.0131607
  32.8496628  26.7341747  83.3118439  33.1750298  25.8621788  83.0882568
  33.3558044  27.3280907  82.7574844  56.6989784  44.8598061  49.4836006
  57.3301620  45.3827972  49.9778824  56.2859306  44.2992134  50.1403809
  14.0037241  64.0838318  31.0325279  14.7538776  64.2696991  30.4677677
  13.3119078  64.6611633  30.7095642  47.4186974   2.7266374   1.7666074
  47.4779778   3.4160545   2.4279861  47.7716713   3.1263282   0.9716935
  46.5763092  51.7603188  68.8552017  46.6056023  50.8042755  68.8183136
  46.9385910  52.0436096  68.0157166   1.5108752  69.8838120  67.2294998
   1.9400401  69.1696930  66.7582397   2.1915808  70.2351913  67.8034363
  18.4362144  57.4145546  65.0653076  17.5462170  57.3245316  64.7246704
  18.3797951  57.1021347  65.9683304  78.6910019  32.6577454  53.8539238
  79.4076080  32.5979233  53.2221642  78.0573959  32.0031929  53.5600929
  44.6234055  58.3097687  34.6073036  44.0390053  57.7433968  34.1033821
  44.7336693  59.0874825  34.0602837  37.4684448  38.5924263  19.5585022
  37.3773193  39.5270767  19.7438469  38.1433525  38.2922134  20.1672745
  74.7896194  57.4307899   1.2896265  74.2953339  57.5884552   0.4852273
  74.2707596  57.8506241   1.9757468   9.9572802  59.4362144  28.2658463
   9.3239956  58.9383545  28.7828712  10.5842896  59.7670479  28.9089947
  14.8893499  53.2185364  33.0144768  15.4092169  52.6261559  33.5576630
  15.4497147  53.9848061  32.8917732   0.9321085  45.2319527  48.9050903
   1.6367103  45.8106422  48.6137428   0.2324443  45.8252640  49.1783714
  64.1001129   9.3057728  73.6104660  64.0855942   9.7765722  74.4437561
  63.1818466   9.0995579  73.4358521  64.4883652  34.7725906  28.1914616
  64.6148987  34.0517540  27.5745201  63.5731964  34.6984444  28.4620056
  27.6286621  27.5451946  73.9956741  27.8829384  26.9700241  73.2740402
  28.4583378  27.8292198  74.3793335   0.5416332  58.6625748  59.1265526
   0.3591100  58.8741226  58.2110367   1.4401268  58.3325500  59.1215782
  58.3415375  28.6095161  57.6743393  58.1167679  29.4996929  57.4036102
  58.9048157  28.2810745  56.9735680  43.6267853  21.8545895  57.8168373
  43.2895088  22.6175461  57.3473969  44.5766106  21.9092178  57.7115746
  47.6183434  40.7910576   9.3803959  47.8730583  40.6689110   8.4658298
  46.9682693  40.1071510   9.5413609  36.3113861  53.8096313   8.1778908
  36.6586418  53.1108513   7.6234984  36.8474121  54.5734138   7.9644771
  49.8820229  33.2861061  29.5918980  49.4891510  32.7139130  30.2510452
  49.5316315  34.1547279  29.7892685  21.7532406  62.7141457  17.8412666
  21.8774185  63.2485275  17.0568905  20.9291172  62.2519531  17.6881981
  78.5815125  16.4804993  68.7237854  77.7495117  16.1343136  69.0465317
  79.1153946  16.5928764  69.5102768  56.3144379  54.3720703   4.9777489
  55.4245682  54.7156754   4.8983727  56.4600105  54.2997665   5.9210472
  39.8836441  10.7171259   5.8717985  40.0673027  10.7028770   6.8111057
  38.9329491  10.8130083   5.8150640   7.1716003  64.3332748  10.4627180
   7.1767073  63.8653946  11.2977600   6.2506747  64.5477600  10.3139772
  52.5902405   5.8439503  40.0104218  52.4298553   4.9016809  40.0617905
  52.6033936   6.0338798  39.0723457  51.0950432  15.7259064  66.1347961
  50.5544662  14.9804230  65.8735199  50.4667740  16.3878117  66.4235687
  86.5462341  57.5161324  69.5678253  87.1197662  58.2191467  69.2627716
  85.8875732  57.4284096  68.8788300  14.5903454  41.4776344  16.6333981
  14.5448437  41.2577209  17.5638828  14.7097416  40.6357346  16.1938725
   8.9472771  35.7679253  36.5214615   9.2946024  35.6114159  35.6433372
   9.2383633  35.0125809  37.0323029  26.4438419  32.7288551  18.1594982
  27.1233711  32.6594315  18.8300591  25.7971554  32.0670090  18.4044170
  86.3568726  41.0859261  24.5361786  85.8394089  40.2838058  24.4650021
  87.2653961  40.7912254  24.4732189   1.8411757  37.0507622  47.5711136
   1.9342135  36.1368904  47.3020172   0.9881102  37.0873909  48.0037460
  81.9732895  43.0635414   4.2165623  82.1709671  42.3387527   4.8097186
  82.6421585  43.7204285   4.4098020  70.6629028   6.9042053  62.1017914
  69.9097672   6.3453026  61.9103737  70.8059692   6.7994552  63.0424271
  70.3544235  24.5525990  82.1528015  70.2201691  25.3004475  81.5706253
  71.1868820  24.7348309  82.5887299  26.3468075  67.2971268  60.1620865
  26.4170513  67.0884933  59.2305450  25.4800663  66.9786224  60.4141731
  56.6854591  26.9864407  16.0034847  56.2079620  26.1865387  16.2234459
  56.7626076  27.4554672  16.8343220  31.4101734  40.5338516  55.9513206
  32.1571312  40.6042099  55.3568993  31.5022411  41.2820053  56.5412521
  14.7407637  53.4764633  39.5182724  14.7408600  54.1853561  38.8750763
  15.6367378  53.1399269  39.5039368  22.7750874  57.4183617  72.1636963
  23.7300720  57.4739037  72.1297302  22.4907856  57.6360893  71.2760010
   0.2538297   6.1746988  88.0820007  -0.5860836   6.6211910  88.1888809
   0.3963098   6.1557775  87.1356583  77.5779495   4.5189910  78.5748596
  76.8959351   4.0672293  79.0718536  78.2520218   3.8541064  78.4342117
  71.0808411  30.3534508  28.7521152  70.7730179  30.8805580  28.0147991
  70.3309937  30.3106709  29.3455238   8.0305395  27.0453644   4.0057454
   8.3100624  27.6549778   3.3227592   8.7997131  26.9449215   4.5665622
  28.6508465  17.2701054  73.5110016  28.5510216  17.6497383  74.3840103
  29.1220055  17.9374294  73.0120773  21.6185169  52.9286423  34.4295006
  22.3332539  52.7108498  33.8312149  21.0949306  53.5726891  33.9527473
  84.1578217  31.7698841  88.0726013  84.1360931  31.0653305  87.4250183
  83.3927917  32.3073807  87.8675232  21.9799347   4.5827713  63.0360336
  22.7609406   4.5544648  63.5887184  22.2669201   4.2219124  62.1971931
  55.2422943  57.1266823  55.0409088  56.1793213  56.9348106  55.0782967
  55.1964951  58.0764465  54.9309998  11.0239010  32.5097733  50.9609261
  10.4027233  32.0111847  51.4917564  10.5685005  32.6538086  50.1314087
  77.7658768  63.6304131   3.6058762  77.1655960  64.3386765   3.3729215
  77.4163666  63.2799835   4.4251900  86.6908035  52.3486671  81.7828827
  86.5718994  51.8047485  81.0042648  85.9104385  52.9023323  81.8097229
  35.0217628  14.7711315  77.9516068  34.3584290  14.7927923  77.2618561
  34.6309433  14.2369261  78.6430664   2.1208909  59.9450340  57.2195587
   2.5533836  60.6125984  57.7520447   2.6634469  59.8767586  56.4339371
  49.5757713  25.3057156  32.5882111  49.5753784  26.2132301  32.2838326
  50.4795151  25.0135937  32.4692879  46.9811440  56.9491043  74.9285431
  47.6614037  56.3315430  75.1970444  46.8476562  56.7687416  73.9980164
  71.9040222  -0.0078938  87.0873718  72.2155685   0.6184683  86.4340439
  71.5431442   0.5359206  87.7875671  43.2975540  14.7068434  46.2302742
  43.7249794  14.5000992  47.0614128  43.8936501  14.3663960  45.5631943
   9.4275913  54.1815453  21.2077961   9.4104681  54.9900513  20.6956844
   8.7833004  53.6152687  20.7829990  40.9763985  58.7447128  43.0786972
  41.6999626  59.0027809  43.6497383  40.2040329  58.7722549  43.6434288
  65.3302841  52.4500237  37.6408920  64.8716888  53.2058678  37.2739830
  66.1307144  52.8153419  38.0178452  56.5388260  23.1299210  56.0375748
  56.7135658  24.0124702  55.7107658  57.2509956  22.9571762  56.6533737
  67.5378418  25.6653786  38.1141434  68.4596329  25.7540054  38.3563805
  67.2432938  26.5630169  37.9601212  13.0950394   2.5996020  75.4064255
  13.4302645   3.3662946  74.9416275  12.4958735   2.9591467  76.0606155
  81.6881027  44.8091049  30.3444023  81.3891525  45.4766197  30.9618855
  82.0547333  44.1187706  30.8968925  56.8790588  60.7178764  51.5024948
  56.2236862  60.7743416  50.8071327  56.8283310  59.8116226  51.8064117
  12.9084072  58.7787170  73.9937286  13.8386545  58.6464157  74.1763916
  12.8332787  58.6738014  73.0452652  32.3256378  70.2530060  22.3736782
  31.5840683  70.1375351  21.7795658  32.8897171  70.8878708  21.9320908
  77.5980148  34.9045067  33.8300095  76.6439133  34.9335861  33.9012947
  77.7916336  35.3692169  33.0158920  34.9345284  46.4799004  39.3123589
  35.4274445  47.1514740  39.7837982  34.1448174  46.9293861  39.0114479
  63.9143295   9.5336857  78.1470566  64.1323853  10.2978354  77.6134338
  64.0668411   8.7863150  77.5687790  22.4003849  45.6266098  28.6629353
  21.9268303  46.3719254  29.0323696  22.1809063  45.6413193  27.7313538
  19.4785976  18.4651127  68.6625290  19.2500191  17.8423405  69.3525543
  19.6916542  17.9176807  67.9067764  35.5737343  48.1303596  37.2583160
  35.5989647  47.4524460  37.9336128  35.1675415  47.7025452  36.5045204
  79.0047379  61.4614334   2.2217877  78.2421341  61.1483536   1.7353283
  78.6614304  62.1553650   2.7846606  61.0908394  21.5585384  67.7347565
  60.8701172  20.6289558  67.6765289  61.7840233  21.5993042  68.3935928
  62.4098206  51.8166962  17.1028633  61.6815605  52.4169655  16.9430447
  62.1082802  50.9767685  16.7567062  83.5389709  67.2790375  15.6079636
  83.5973816  68.2313232  15.6852112  82.8455582  67.0312119  16.2195129
  48.1060257  22.0296917  64.6518860  47.3210373  21.5537796  64.3807144
  48.6937294  21.9712486  63.8986168  52.3418350  69.0258255   1.5987110
  51.3938866  69.1363220   1.5250663  52.6152000  69.7062759   2.2139311
  57.9154701   5.0818291  53.8990936  57.4366074   5.6172004  54.5317841
  57.8898392   4.1978426  54.2653503  46.8985748  22.0561905   3.4704876
  47.4766197  22.7912312   3.6749630  46.0785637  22.2646351   3.9181094
  77.0909500  31.2549248  68.4020615  77.7632294  30.7108974  67.9918060
  77.1091919  32.0731773  67.9057083  31.2960739  53.6280441  65.6573563
  31.2524529  54.4197159  66.1936264  30.4321232  53.2269096  65.7517548
  29.9587555  37.6292229   4.6111083  30.3312359  36.9692078   4.0264106
  30.7074528  38.1624184   4.8782878  45.1880417  66.4049149  24.6972332
  45.6656914  67.0582809  24.1861591  44.2852592  66.7228622  24.7085514
  55.9231071  37.5343475  56.2381897  56.4592400  36.9822083  55.6690407
  56.5561600  38.0584183  56.7289314   0.1749087  45.4304619  83.7677078
   0.0700488  45.9264145  84.5796585   0.7014567  44.6710358  84.0172195
  25.2712364  40.5660286  58.7105675  25.0097637  41.2314796  58.0741425
  25.6496449  39.8639793  58.1812592  47.7184258  69.8064346  60.5579948
  48.6610565  69.8105087  60.3916740  47.5348969  68.9219360  60.8745613
  50.4532585  39.5227089  12.1663361  50.2481155  40.4262428  11.9259815
  49.9100151  39.3501930  12.9353333  15.6016226  24.2744179  30.4246464
  15.9673462  25.0796700  30.7907677  14.8869772  24.0443153  31.0184212
   0.9240701  35.8631477  27.4610634   1.7112823  36.1968498  27.0307465
   0.8069772  34.9849892  27.0986366  31.6304417  27.3746395  88.7438202
  32.1127319  27.3277550  87.9183350  31.3044186  28.2738800  88.7799911
  16.1602173  26.1151943  12.4548292  16.3037605  26.0269566  13.3970823
  16.8988571  26.6411686  12.1482477   2.8043039  10.2452583  53.9460297
   2.7781045  10.4983597  54.8687897   3.6835885  10.4880438  53.6559525
  59.4031677  37.5073280  41.5416641  59.9730759  38.2359619  41.2956352
  59.7961388  36.7430077  41.1202164  83.6051331  55.6485062  19.6113434
  83.2383041  56.4560432  19.2514076  82.9969025  55.3982887  20.3068085
  78.0728836  15.8890915  30.6291580  78.1182404  16.7509537  30.2151909
  78.5545502  15.9919634  31.4499187   5.1496100  19.3584919  14.7140217
   5.0187201  20.3037968  14.7881594   5.6384182  19.1218300  15.5022411
  17.2915478  10.4541931  35.2687531  17.6896458  11.2635460  35.5892181
  18.0343971   9.8838396  35.0710068  12.5724554  11.8278618  60.1823235
  11.8103981  12.3796282  60.3585434  12.2540522  10.9335098  60.3047371
  36.6503906  50.7648430  28.0660133  35.8030853  50.7932816  28.5104256
  36.6606216  49.9158821  27.6239777  17.2932224  48.9324493   0.7401319
  16.5410080  48.5144005   1.1592263  17.1466808  48.8049126  -0.1971469
  45.8200798  18.1123238  19.9399223  45.2664261  17.3355389  19.8605251
  45.6166000  18.4639034  20.8066521  53.2112274   7.0212078  34.9243774
  54.0538483   6.8030896  34.5260773  52.5643425   6.5829787  34.3714485
  63.5089912  24.1978321  41.1594238  63.5769730  24.3734150  42.0979233
  64.3246613  24.5386124  40.7923012  71.3351059   8.3132029  68.7798767
  70.9286880   8.4392767  69.6372910  70.7030334   7.7868829  68.2902832
   6.2101107  56.9582405  76.7861404   5.7430387  56.7888947  75.9679718
   7.0110226  57.4075394  76.5161362  68.0090866  21.5665321  55.8159409
  67.3009186  21.0163097  55.4812889  67.9716187  21.4537468  56.7657356
  44.9086456   2.4738846   5.2912164  44.3843689   2.5136051   6.0910859
  44.2829170   2.6401889   4.5862045  74.4254227  26.8154697  73.3443527
  74.7054672  27.6923199  73.6069107  74.1726608  26.9097404  72.4259491
   7.4200406  48.3094368  72.5466766   6.9204588  48.2961693  71.7303009
   7.0712276  49.0592003  73.0287704  48.9808578  66.1294174  72.2649918
  48.9172363  65.7168503  71.4036179  49.3212128  67.0060043  72.0861588
  35.7543068   3.3949351   4.5117145  35.1095352   2.7219946   4.2934170
  35.5609055   3.6262174   5.4201951   8.7885056  53.9181519  48.7115936
   9.1049623  53.6577988  47.8465500   8.4072666  53.1199722  49.0773811
  65.2987213  18.9303169  60.9355812  66.1946945  19.2606239  60.8694801
  65.3599548  18.0152779  60.6613808  19.1092472  50.8064346  61.1461678
  19.0052166  51.0235329  60.2197380  19.6979942  51.4805717  61.4855003
  14.7538958  43.8669167  77.0930939  15.0414829  42.9677010  76.9351654
  14.6366138  44.2379532  76.2185593  84.1521835  36.2346420  61.9729385
  83.9167480  36.8878632  62.6318054  83.5001831  35.5418816  62.0788193
  39.8737106  16.7555790  68.2627487  39.5255127  17.3234863  68.9501190
  39.2783585  16.8812122  67.5238266  79.7843933  42.6506920  64.7847824
  80.0984192  41.7953682  65.0781174  80.3223572  42.8538017  64.0195541
  31.5041981   0.1759114  75.7548599  32.1108017   0.7656600  75.3071365
  30.9908047  -0.2195710  75.0504074  62.5621910  71.0615158   2.8581929
  61.7154198  70.7830429   2.5093868  62.3435593  71.5781708   3.6337552
  17.9521179  48.4788399  55.5231743  18.6829319  48.3527145  54.9180031
  18.1379585  47.8846741  56.2502632   6.7868376  57.3889503  19.6317902
   6.6344399  56.7761002  18.9124699   5.9197612  57.7395248  19.8355255
  43.2118149  12.8670101  22.0159950  42.5006409  12.3562012  22.4026928
  42.8151360  13.7140360  21.8124695  67.7268448  17.3548641  50.7138901
  67.4515533  16.5305710  50.3126602  67.5746841  18.0136261  50.0363121
  25.9222260   6.9352198  88.4154663  25.4192715   6.3470502  88.9787827
  26.3354244   6.3572955  87.7739868   9.4916496  54.0037041  65.7373810
  10.3462343  54.1564598  65.3341675   9.6873569  53.5098991  66.5336838
  17.9478588  28.5461769   6.2574067  18.7909813  28.3188362   6.6494446
  17.3947124  28.7855377   7.0010242  70.0929184   4.7866125  88.8636703
  69.5266342   5.5571814  88.8214569  70.4557800   4.8042674  89.7492447
  42.6107941  14.1208658  18.1708298  42.3464432  14.4822893  17.3248253
  41.7947922  13.8129873  18.5652676  72.4736252  45.7636108  25.4770012
  71.6123199  45.3697968  25.3381252  72.9695282  45.5387955  24.6897469
  75.6502075  62.6876183  72.3908768  75.9934235  61.7985535  72.3014832
  76.0176620  63.1623077  71.6453018  37.8180084   5.3452716   6.2272401
  38.7225533   5.6583157   6.2214875  37.2966957   6.1150618   5.9994473
  18.4340153  27.2383633  77.0614853  18.8095608  26.9514503  76.2290955
  17.5000458  27.3425598  76.8796234  42.0559464  15.1717167  71.0095749
  41.3723831  15.7549162  71.3395004  42.7777023  15.7559700  70.7773132
   4.8816514  48.8073158  17.6693954   5.2328434  49.6323395  17.3343868
   4.3405652  48.4698868  16.9555340  19.7456284  47.3021088  65.6253586
  19.4562912  47.5836754  64.7574692  19.1281490  47.7147522  66.2292404
  73.7859116  60.1879883  73.1075897  74.1834946  61.0541458  73.1966324
  73.9947128  59.7430229  73.9289551  83.4459457  35.5973091  66.2686844
  84.0665131  36.3084183  66.4282074  82.5935669  36.0299606  66.2187500
  45.3361664  47.2310181   0.8523715  46.0639954  46.7052307   0.5206406
  44.9345856  46.6848145   1.5281122  76.3203659  44.4141769  65.4724579
  76.6629868  43.6444473  65.0181885  75.5318298  44.0999565  65.9148331
   3.0828171  38.1197548  52.2726364   2.1465797  38.1888161  52.4595108
   3.1259592  37.9084930  51.3400383  22.5996418  51.1921768   4.1362252
  23.2762852  50.5338173   3.9782720  21.7750359  50.7146034   4.0457644
  68.2975998  14.6767960  51.7686157  68.5291061  13.9693222  52.3703766
  68.8971634  14.5690298  51.0302734  50.4487343  44.5299873   9.5784950
  50.2316818  44.3394966  10.4910917  50.4954605  43.6708488   9.1590567
  49.0205574  29.9312115  10.5925074  49.1602821  30.8513756  10.3688803
  49.8802338  29.5248413  10.4827375  60.0313797  52.3018608  32.0825539
  59.2886581  52.7141609  31.6414146  59.9091606  52.5153885  33.0075951
   2.6769669   5.9592414  12.3696146   3.5109892   6.3859487  12.1732483
   2.0721674   6.6817236  12.5383425  41.3401756  53.8178215  73.0829697
  42.1133156  53.2574501  73.0161209  41.6906395  54.7083855  73.1004410
  66.4317551  44.1953201  34.3257179  66.0554428  45.0710411  34.4136238
  67.2865906  44.2580872  34.7518005  57.5494270  51.6628571  59.4597282
  56.7532959  51.6663971  58.9283218  58.1154976  52.3153954  59.0474358
  39.6981697  52.7339897  70.0000076  40.5682793  52.5971642  69.6252747
  39.4715271  53.6318550  69.7577286  75.5726013  26.8174171  83.1721268
  75.2002029  26.7253265  84.0490952  75.4619598  27.7444801  82.9610672
  79.1640778  30.5833321  65.4543457  79.1204987  29.9687119  66.1868591
  80.0918655  30.8084831  65.3854752  63.6039734  26.2760448  73.1350937
  64.4241180  25.8056850  72.9855728  62.9470253  25.7699089  72.6570969
  20.0659504  21.4206161  73.4431305  19.2896652  21.8210621  73.0516510
  20.3458042  20.7655544  72.8037491  12.5344667  50.2634926  50.5997429
  13.4437513  50.5547523  50.6675682  12.5864191  49.3080635  50.6259689
  34.4957848  63.4668083  81.6392441  34.1601982  62.6287498  81.9574738
  34.7664719  63.2898827  80.7383270  43.5759773  23.5008507  69.6607590
  44.1705856  24.1735802  69.3289261  42.9286957  23.3887691  68.9645538
  58.6771355  51.7603073  63.2953873  58.0009995  51.4658165  63.9055862
  58.2991676  52.5317345  62.8731613  45.6627922  21.6002808  11.4111195
  45.5163765  20.8524437  11.9903708  46.3725166  22.0898857  11.8268261
  33.2659874  26.9876308   1.7215236  32.6769600  26.9660969   0.9673249
  33.7624359  27.7990131   1.6146111  31.7834988  19.7063637  83.7913818
  32.4052505  19.0258350  84.0493317  31.0346947  19.5799904  84.3740921
  36.7162018  64.6176834  31.8913879  37.1571236  63.9028740  32.3505936
  35.9612846  64.2039108  31.4729061  41.5096970  12.5475559  72.3052444
  41.5629082  12.3908615  73.2480316  42.0093079  13.3523436  72.1676254
  85.9753571  13.7575121  69.3983307  85.8070221  12.9549999  68.9045029
  86.6121826  13.4995222  70.0647583  32.6439629  71.0047760  34.2089119
  33.2432709  71.4343872  33.5985870  33.0364456  70.1458740  34.3653679
   7.7997046  68.7130585  16.7100143   7.5179453  68.7897034  15.7984390
   7.3934216  69.4598389  17.1498795  55.9931602  32.8166656  61.2461243
  56.0467300  33.2232132  60.3812065  55.8631020  33.5497437  61.8477135
  25.7455330  71.6665192  22.6848087  26.5525055  71.1523819  22.6586418
  25.0451813  71.0149536  22.6502571  33.5851631  59.6210556  37.5793724
  34.4066658  59.9732094  37.9219437  32.9271278  60.2745476  37.8163757
  32.6278954  59.4161606  63.7168350  31.7412472  59.3533630  64.0720062
  32.8918877  58.5079079  63.5697937   7.9437060  17.4817486  18.6757584
   7.5740123  16.6212692  18.4779320   8.8827353  17.3227291  18.7715054
  64.6804199  52.2079620  12.0418739  65.5620728  52.5389862  11.8705606
  64.0990448  52.8929825  11.7117624  51.4716911  28.9824829  63.2918396
  52.2212868  29.5585632  63.1419449  51.3939133  28.9336338  64.2446213
  74.1017761  41.4335098  47.7567139  74.6595154  42.2084007  47.6881104
  73.3736115  41.6089897  47.1607094  44.1362114   0.1281677  54.4751053
  43.7932281   0.6172221  55.2230492  44.9722176   0.5498083  54.2762527
  54.2263603  24.9518185  71.8156281  53.3715210  24.5229492  71.7762070
  54.7707863  24.3541107  72.3280487  75.7587662  65.2915878  27.7535744
  75.6362457  64.7739868  28.5493813  75.4691238  64.7154617  27.0461750
   1.8506039  39.9202652  23.9572258   2.5168097  40.5663757  24.1916237
   2.2325234  39.0798302  24.2102833  54.3654938  63.5869827  85.8995132
  53.9585190  64.3728561  86.2642136  55.2550621  63.5919418  86.2528839
   3.8274274  62.4395981  12.7504683   3.0832467  62.7108765  12.2130346
   3.8928521  63.1138077  13.4267778  69.1215820  51.8000832   3.3932896
  69.9313431  51.7898369   2.8829839  68.4448166  51.5264587   2.7741385
   9.4351807  57.5393181  39.8034706   9.8761921  56.8233376  40.2607613
   9.0989866  58.0993385  40.5031738  71.4006653  19.9109936  77.3875885
  71.1218643  18.9961376  77.3483124  72.3547440  19.8737450  77.3199539
  27.4587402  45.4569359  12.4723186  26.9616566  44.9082756  13.0790405
  27.9301510  44.8349075  11.9181709  28.6583214  63.3657112   2.5018036
  29.4300690  62.8011780   2.4577849  28.5723972  63.5819550   3.4302900
  56.2270508  49.0615730  26.3476849  56.3161964  49.2412872  27.2836266
  57.0101814  48.5583305  26.1247749  37.2059708  24.9708939  75.0828247
  36.8263092  24.0948372  75.0148773  36.8969955  25.3010540  75.9264832
  41.7702751   5.0013976  18.8918610  41.3320007   4.7885790  19.7157879
  42.7025375   4.8982491  19.0828667  73.8148804  50.5038910  28.4136810
  73.9537201  50.9936256  29.2243080  73.5113678  49.6433334  28.7027435
  71.4619675   4.8599529  58.0092087  72.1567001   4.2015343  58.0010567
  70.8401108   4.5602045  57.3461342  77.8908386  24.7595558   4.1947265
  78.0182877  25.7082157   4.2007489  77.1657486  24.6191654   3.5858195
  34.7425690  58.5302620  24.6342430  34.5776215  59.2363396  24.0093613
  35.3472672  57.9441414  24.1792316  70.9039459  37.3681870  16.4817524
  70.5253296  36.6020508  16.0505714  71.4832764  37.7516937  15.8233242
  55.6664238   2.9909251  35.9542351  54.7684135   2.8438764  36.2511940
  55.6163025   2.9296730  35.0003128  56.9661560  11.2501125  39.2361946
  56.7058334  11.7970533  39.9773560  56.9112282  11.8320074  38.4781647
  64.6270065  40.1766319  64.4875870  64.1040955  39.3768272  64.4318695
  64.1398697  40.8178139  63.9700737   0.4771679  66.3499146  24.6702003
   0.7083561  67.1064682  25.2090893   0.5664358  65.6003571  25.2587872
  61.5938110  31.1071186  69.3787918  61.3215065  31.9445992  69.0036850
  60.7775993  30.6216660  69.4986572  76.3941803  10.4277897  18.3081779
  76.8247375  10.6954641  19.1200924  76.9877319   9.7827091  17.9237232
  68.4550476  10.3230886  68.7331085  68.2741241   9.5831490  68.1534576
  69.1435928  10.8150187  68.2857437  17.1117172  12.4049320  74.5391998
  16.2094955  12.6611414  74.7304688  17.5953655  13.2306280  74.5159073
  44.7778091  19.1613464  17.6242085  45.1971855  19.0618954  18.4788799
  45.0740623  18.4020672  17.1222477  49.7016144  49.4837036  88.3806458
  49.1235695  49.6656075  89.1215973  50.5362434  49.8841896  88.6240387
  15.5390091  13.9651241  10.2780247  16.2636852  13.5134363  10.7105236
  15.1584606  14.5166512  10.9615688   2.0123897  54.6884804  78.8326187
   1.2248815  55.1312218  78.5163193   2.1752350  55.0750008  79.6930313
  84.9279327  45.0632286  32.2801590  85.2121048  44.1526909  32.2001991
  85.7308502  45.5744667  32.1791878  70.4743576   3.7142398  38.3750496
  70.6842117   2.9299908  37.8679543  69.5429993   3.6263256  38.5776978
   0.5108486  34.4978333  83.8456497   0.4798667  35.3885155  83.4964218
   0.7310830  33.9520988  83.0907288  71.4622116  66.7888794  37.4531746
  71.5231094  66.5704346  36.5232239  70.9582214  67.6023407  37.4756203
  83.6078339  63.0295601  19.5058708  83.6990356  63.2881813  18.5887947
  83.9443359  63.7770348  20.0001183  74.8536530  56.4047661  75.3596191
  75.3696518  56.3741264  74.5539932  74.8395157  55.4992523  75.6695786
  28.1036034  39.3641548   0.7507772  28.9762058  38.9708748   0.7618868
  27.5229511  38.6674042   1.0567421  20.2673550   0.2512279   9.0897131
  20.5764580   1.0420307   8.6477652  20.8039265   0.1933992   9.8802691
  44.1544266   7.6605949   8.4813051  44.2144966   6.8228021   8.0222559
  44.0228119   7.4220271   9.3989077  75.2033005  37.3499947  16.5024357
  75.2999573  36.8043861  17.2829494  74.7083282  38.1122246  16.8028297
  17.7422066  63.6502457   9.4154930  17.5659523  62.8928947   9.9736900
  17.6605320  64.4032898  10.0007105  55.8837013  10.2005634  60.5980759
  56.7004967  10.6391144  60.8363037  55.8496323  10.2598858  59.6433258
  20.1534557   4.6124578  78.5852509  19.8676968   4.8504987  79.4672394
  19.7047939   5.2341514  78.0121613  60.2015419  30.1875153  30.8529797
  60.1361809  29.2812271  30.5519772  59.6741600  30.2133465  31.6513748
  70.7982864  31.2403622  69.2662811  71.0461197  32.0561028  69.7014618
  69.8544464  31.1698341  69.4091644  84.1664734  55.7169456  57.9691849
  83.5422897  56.1699142  57.4022293  84.7150421  56.4148827  58.3272247
   4.1691666  51.6101303   4.9583850   4.4104033  51.4020615   5.8610168
   4.7582827  52.3229446   4.7112594   1.5733755  42.4088364   1.1061635
   1.4267741  43.0310440   1.8186212   2.5072927  42.2047195   1.1548079
  32.5433311  61.0773926  81.6826630  32.5819588  61.2594109  82.6216049
  33.0491524  60.2720795  81.5737991  10.7136784  16.4665985   2.0579295
  11.2726240  16.5088921   1.2820286  10.2453899  17.3014183   2.0615654
  58.6089363  16.3800449  71.8451614  58.9825554  15.9573078  72.6184158
  57.6682663  16.2168236  71.9139481  47.1565437  54.7994728   0.4496978
  47.3078575  53.9090462   0.1327124  47.1829720  54.7219276   1.4033856
  82.1370010  33.2498589  16.7152042  82.7690506  33.7309227  16.1810513
  82.5976715  32.4502220  16.9693489  60.0022926  47.7726440  33.5943260
  59.4323006  47.2889709  34.1921616  60.4454231  48.4127579  34.1512108
  72.2973022  60.7817802  39.4350128  71.8568192  60.8795509  38.5908318
  72.7838898  59.9611244  39.3576508  75.6969299  68.0365295  62.3233795
  74.7901993  67.7945557  62.5118446  75.7851562  67.9168930  61.3777924
  43.6391869  45.4658051   2.3102562  43.6213112  45.4387169   3.2669058
  42.8039818  45.0813141   2.0441117  82.0413971   4.1891122  56.7328835
  82.0968170   5.1379557  56.8462715  81.1489639   3.9678118  56.9989891
  84.6489029  69.1156998  86.7010422  85.5625839  69.2803421  86.4679947
  84.6800003  68.3365936  87.2562561  42.3197441  61.1499176  41.4456482
  42.6148911  60.7925224  42.2831383  41.6379967  60.5446739  41.1538773
  80.7580185  17.6681957  88.1430893  80.2394638  17.7281342  87.3407516
  80.8365555  16.7285633  88.3078766  26.6649055  35.6825142  61.5781860
  27.4943447  36.1600227  61.5939636  26.9165859  34.7625504  61.6591225
  79.0808792  64.7985458  33.0374908  78.9521942  65.2224045  32.1889534
  78.3089371  65.0441284  33.5474167  78.3224716  58.9018593  43.2618790
  78.0892944  58.2144623  43.8858528  77.4822845  59.2249641  42.9364319
  20.4044952  42.3950272  65.7032471  20.6415043  42.6420708  64.8093643
  20.3229332  43.2277145  66.1682281  53.2693062  61.8644142  83.6741104
  53.7252045  62.3266106  84.3775101  52.4532013  62.3508377  83.5575027
  76.5645828  30.7487507  25.0531788  76.5523987  29.8018894  24.9134102
  76.1938934  30.8665428  25.9277916  34.3883934  43.5567131  10.4520674
  33.5181732  43.3994408  10.0857134  34.5158081  42.8458939  11.0803480
  57.7059441  18.8199501  22.7469559  58.4500961  18.7392197  23.3435707
  57.9759789  19.4873657  22.1161861  52.2192345  55.0395393  24.3599854
  51.8937187  54.3653412  23.7635593  51.5240593  55.6972237  24.3803406
  49.2205544  14.0934610  71.5315018  48.8454018  13.8422451  70.6874771
  48.7132530  14.8592396  71.8006897  58.2183838   2.3688252  32.3530273
  58.2144623   1.8194480  31.5691910  58.0670013   1.7580673  33.0743408
  33.2717094  44.0372238  36.0273094  32.8840752  44.6309662  36.6703033
  32.7177162  43.2571983  36.0570564  11.0737743  34.4240990  87.5465393
  11.9252834  34.8059845  87.7594376  11.2038288  33.4805870  87.6419373
  61.8917656  68.6928329  75.7663879  61.7299347  68.3580399  74.8843689
  61.0273590  68.9496918  76.0874176  14.3314257  42.1243401   9.9970217
  14.4628897  41.5736275   9.2252283  14.1766920  41.5046120  10.7099218
  24.4819565  46.4506798  54.3176880  24.6727428  46.7038727  53.4145126
  24.8390274  45.5663071  54.3990326  25.0382061   9.7850695  30.9856205
  24.7128143   9.5606871  31.8574028  24.8212986   9.0248089  30.4460011
  82.8561249  55.4680939  13.9254818  83.0103760  56.4109802  13.9838533
  82.2251968  55.2850609  14.6216555  81.5959320  27.8178444  69.2413101
  81.7311478  28.3817196  70.0028763  82.4744263  27.5206509  69.0043411
  80.9315948  49.9911385  80.6877670  81.7062912  49.4556046  80.8588715
  80.4167328  49.4760017  80.0666580  65.7750473  59.3209267  24.8453350
  65.3247681  59.0904846  25.6579685  65.0738449  59.4096260  24.1998272
  11.9035387  51.8364334  70.6695938  12.5927315  52.4913406  70.7806778
  11.1008892  52.2862778  70.9334564  85.4301147   5.5012140  41.8360443
  86.3459396   5.2888460  41.6560478  85.1687012   4.8784914  42.5143585
  80.0530701  34.7933388  56.5774155  80.7958832  35.1806641  57.0404854
  79.4875183  34.4556961  57.2719536  52.3473015  35.7517700  32.0530891
  51.8894844  34.9359856  31.8502846  53.2667351  35.5636482  31.8647270
  76.1093292  34.0434189  47.5356903  76.8579865  34.4800491  47.1293526
  76.2089539  34.2183990  48.4714737  71.0116348  10.2526293  32.3717766
  71.0267181   9.4012070  32.8089066  71.6078873  10.7966404  32.8863373
  20.3001251  48.8365364  33.5873604  20.3098679  49.6845322  34.0312500
  20.1372757  49.0491028  32.6683769  43.0621338  34.0842056  68.2773590
  42.5667343  34.5829239  67.6276703  43.9719543  34.1505928  67.9874420
  30.0855961  16.9426670  70.6020737  30.2986526  16.0258064  70.4282761
  30.5457535  17.1452465  71.4165955  29.7759743  34.5108185  23.3312206
  30.3558445  35.1814194  23.6921616  30.2988605  33.7091827  23.3453827
  71.0141983  49.1928673  23.4083233  70.2262878  49.7329559  23.3472691
  71.6654510  49.6592293  22.8842945  62.9020157  64.7327652  12.0186405
  63.1417313  63.8924713  11.6278982  62.4061241  64.4992294  12.8033600
  32.7349358  32.7028770  20.6250896  33.3982124  32.0127449  20.6284904
  32.6209564  32.9300804  21.5479221  79.0229187  65.3668900  74.7308197
  78.7461166  64.8469162  73.9763412  79.7080536  64.8421783  75.1449432
  25.8004150  40.8950386  41.4547386  26.1270733  40.8625870  42.3538933
  26.3500977  40.2733879  40.9776306  15.1581097  15.6145878  56.8337135
  14.6944265  15.4772606  56.0076523  15.1349525  14.7609568  57.2661591
  12.8588829  61.4613342  69.5346909  13.1132669  62.0895653  70.2105942
  12.1412287  61.8893471  69.0677719   1.6904619  14.8138304  22.2691479
   1.3582546  14.2476702  22.9658051   2.3154774  15.3913260  22.7074242
  59.3067589   8.3265486  55.1356506  59.3223991   7.3849487  54.9642525
  59.1114578   8.7214680  54.2858658  54.6495094   1.9936597  67.3463593
  54.8910103   2.9146736  67.2481689  53.8563995   1.8965126  66.8193207
  69.4987259  30.7390785  81.0220795  69.0680008  31.4856701  80.6057816
  69.6772079  30.1336937  80.3024368  30.3251019  50.9866676  34.5364037
  29.5176773  51.3434868  34.9065094  30.8733902  51.7541161  34.3732033
  31.0263004  18.6957817  11.2057581  31.7719994  18.0957146  11.2149820
  30.3671989  18.2671738  11.7517557  53.9908257  47.0894203  28.1832085
  54.2800217  46.4090691  28.7912560  54.1522598  46.7193604  27.3153210
  47.8912735  12.3603802  82.0829086  47.1239357  12.8736935  81.8300629
  47.6879959  11.4694910  81.7979126  57.0442505  19.6637497  35.0357094
  56.2950516  19.5022144  35.6091537  56.9106827  20.5547352  34.7123909
  84.0995560   3.8894157  64.3343735  84.1386719   3.0664415  64.8216248
  84.9447479   4.3067417  64.5008774  52.0420647  35.0124092  21.0574169
  52.4873886  34.1652374  21.0721893  51.2093925  34.8530731  21.5018272
  13.4066467   4.1939163   5.4742255  13.9429045   4.6176896   6.1443563
  13.1609602   4.9031553   4.8802137   1.1213595  53.6264305  71.1298828
   0.5018499  53.7808952  70.4167328   1.7605530  53.0152168  70.7637100
   2.7529693  65.2683029  59.6968727   2.8198385  65.2850418  58.7421570
   3.1220784  66.1056900  59.9775429  42.8895149  24.1025467  56.4304047
  43.1838760  24.7714825  55.8122520  42.2539825  23.5837708  55.9372482
  79.6758499  65.6157761  11.4035664  79.7748642  64.8272324  10.8700619
  80.2881699  65.4926529  12.1289177   1.8489687  64.2560806  11.4277868
   1.0908988  64.6073456  11.8948755   1.7662657  64.6050339  10.5403061
  34.0615234  52.5507965  85.8448486  34.7893181  52.3771858  86.4418411
  34.4037628  53.2026749  85.2331696  43.8904533  46.6388741  62.7885895
  44.1282806  46.4230232  63.6902962  44.7259712  46.8156853  62.3562927
  27.5994701  60.3100586  68.2356186  27.3683949  60.9342804  68.9235001
  28.4565849  60.6020737  67.9252701  77.3242950  17.1772327  88.3733597
  77.5694580  17.2665386  89.2943115  76.9930344  18.0413475  88.1288071
  44.7268753  24.9583836  60.0427246  43.8522758  24.6245117  59.8431435
  44.7604218  24.9855633  60.9989510  21.9114933  67.9989777  14.0749035
  22.2605572  68.7100296  14.6122952  22.2138062  67.2007446  14.5081043
   5.2028503  46.0371704  26.0246124   5.6848917  45.3332672  26.4586449
   4.2825160  45.7929649  26.1224823  52.6227951  46.6199265  17.9120407
  52.1413574  47.2228127  17.3454952  52.7987900  45.8595047  17.3579502
  66.9637451  58.2455177  22.2556934  66.6543884  58.9961662  22.7627010
  67.8929443  58.1752510  22.4745045  77.8290939  70.1886673  31.2616329
  77.9794922  71.1332626  31.2248287  78.6121292  69.8058624  30.8659687
  42.3912430  49.5495148  -0.0353405  42.2363663  48.6049347  -0.0312592
  43.3162766  49.6415405   0.1928653   4.4384174  41.5023613  72.6159286
   4.7753444  41.7485313  73.4773865   3.8258934  40.7885208  72.7933426
  11.6172848  21.6597080  57.2240753  12.2793465  20.9685822  57.2399216
  12.0419178  22.4078293  57.6438789  16.4307632  31.6945705  20.3147717
  15.9668665  32.5286026  20.2411270  15.8578415  31.0626678  19.8803844
   6.3564305  15.8772430   4.5344524   7.2119737  15.7924957   4.9552798
   6.0638485  16.7597160   4.7622018  80.1286087  16.4081230  42.8140526
  80.9843445  16.0542889  42.5716705  79.4992599  15.8191557  42.3977890
  20.0173244  62.9199371  85.5573883  20.7333927  63.5513802  85.4884338
  19.3485565  63.3714790  86.0722580  13.6542263  38.6809196  67.8125534
  13.2271452  38.2757607  67.0577850  14.4904423  38.9990883  67.4723434
  81.7698364  15.4375219   6.6822701  81.0090103  16.0175667   6.7126317
  82.3666763  15.8575439   6.0629148  14.1658249  47.4933090  80.5628281
  15.0271397  47.8946457  80.4475174  13.6802120  48.1187592  81.1006165
  33.2137566  29.2440472  10.4741058  32.8574982  29.1530552  11.3578663
  32.9718781  28.4295311  10.0333223  78.4680481  62.9709625  49.1545944
  78.9361572  62.5395584  48.4397507  79.1082916  63.5756721  49.5296211
   5.0099816  26.6648026   6.1902142   4.2491841  26.1134148   6.0074844
   4.8549161  27.0021706   7.0724669   9.1408634  30.5086060  31.5297909
   9.2106838  29.9603233  30.7482910   8.4984713  31.1785259  31.2957573
  34.3476257   5.4614205   3.4872081  34.8774986   4.8857312   4.0386138
  34.9434814   5.7433000   2.7931390  10.7144909  52.5160217  85.9117432
  10.0152493  52.8089294  86.4961166  10.7666903  53.1966515  85.2407303
  62.1806602  49.9046669  47.2983551  62.5866051  49.5104065  46.5263443
  62.1415482  49.1935654  47.9379082  69.0792694  67.6955872  12.9015188
  69.7645187  67.0275040  12.9197006  68.2618256  67.2021332  12.9687834
  22.4949760  42.7437935  17.2488365  21.8718033  43.4699440  17.2732182
  22.0255165  42.0402374  16.8006763  48.1130104  14.7545061  13.4366856
  47.4532013  14.6636028  14.1241579  48.5946884  15.5479736  13.6704159
  63.6705589  57.2254524  73.4201813  63.4150658  58.1366692  73.2765198
  63.9235039  57.1902161  74.3426895  40.5278130  41.0357361   4.9996691
  39.6917305  40.6712456   5.2900829  40.9683609  40.3065186   4.5633283
  42.1591072  46.8542442  -0.0314113  43.1008568  46.9786072   0.0863665
  42.0198936  45.9197197   0.1219233  49.2665901   2.2569358  28.5166912
  48.6593018   2.6454451  29.1463661  49.6056786   3.0016937  28.0201149
   5.5560985  59.1676598  82.5450439   5.3050275  58.5698738  83.2491989
   6.0351553  58.6187096  81.9242477  32.7776337  48.6858177  22.1289654
  33.1361427  47.8222084  22.3336105  31.8446751  48.6115646  22.3297234
  15.9198856  63.5264206  68.6228714  15.7506676  63.3888283  69.5548935
  15.0501328  63.5743408  68.2260513  80.1249924  59.5244026  45.9879570
  79.7105789  58.8746452  45.4202385  81.0599213  59.3255768  45.9368706
  25.1361599  63.9252586  12.7625885  25.1389351  63.7832985  11.8159781
  25.9583645  63.5395851  13.0650272  53.6052284  38.8960686  18.8635330
  53.1518593  38.0541573  18.9068089  53.2607079  39.3920784  19.6061707
  42.8979683  45.2476883  47.2228775  42.0279770  45.6466942  47.2347412
  42.8294601  44.5058632  47.8239021  46.9761581  10.0918789  69.4667282
  47.5136375   9.3187323  69.2947083  46.5940971  10.3118448  68.6170959
  71.2518463  51.8289642  43.0196190  71.7057648  51.0518227  42.6936646
  71.8981323  52.5314217  42.9481697  29.5121021  43.4106560  65.8748398
  30.0384026  44.1845169  66.0757828  29.9666195  42.6914101  66.3133926
  18.4660568  52.9182281   2.3149266  19.4124374  53.0106163   2.2051094
  18.2123718  53.6706963   2.8494034  41.6870880   3.1835203  31.6240196
  41.4174347   4.0931196  31.7510986  40.8698959   2.7116389  31.4635315
  43.3914604  48.0921440  83.7185974  43.3659286  48.6560898  84.4916153
  42.7272911  47.4239006  83.8875885  43.0928955  62.4359665  82.1031647
  42.9818497  62.0565720  81.2314072  42.6508675  63.2835426  82.0535889
   7.2073607  65.9556046  25.6117001   6.7328105  66.7308044  25.9118538
   8.0821962  66.2788239  25.3962421  37.2081642  65.6734467  84.1228943
  37.8133087  65.4225998  83.4249573  37.7074509  65.5470276  84.9297180
  85.1916046  46.7607117  26.8857021  85.9526749  46.5438271  27.4241829
  85.2164764  47.7145042  26.8089542  24.3611679  69.1719208  71.2557983
  23.4200592  69.0080795  71.3166504  24.4601879  69.7109451  70.4710159
  44.6109810  29.6546230  57.2537537  43.6861916  29.4079456  57.2658310
  45.0419807  28.9948101  57.7969971  42.0373001  14.3386297  81.0781555
  41.1977386  14.7506390  81.2821655  42.0681877  13.5658579  81.6421661
   8.0951366  32.3970490  64.7935028   8.9498329  32.0482788  64.5403519
   7.4873881  31.6725159  64.6454315  70.7669601  30.4437866  61.8686600
  71.2377777  29.6263695  61.7062187  71.2662582  31.1066418  61.3916283
  65.0892944  61.4262123  72.2653122  66.0174484  61.3725204  72.4931030
  65.0836334  61.6420441  71.3327789  47.4523201  70.0429764  65.3173523
  47.6584702  70.6752625  64.6289139  47.4820251  70.5524292  66.1271667
  70.8615799  45.3978424  33.5361633  70.2682724  45.0543785  34.2041855
  70.9159012  44.7005234  32.8826904  39.0695877  57.2707405  38.4242363
  38.2919273  56.8180695  38.0978012  38.8693390  57.4602013  39.3408813
  74.5889053  29.3884430  51.6663017  74.7658157  30.0335636  50.9816437
  75.0040207  29.7501888  52.4492760  52.9243393  44.1539955  57.1852303
  52.1267395  44.2441635  57.7067032  52.7229385  44.5969772  56.3609505
  83.0320053  18.3312187   7.5266352  83.3750305  18.1752644   8.4065456
  83.8113480  18.4347878   6.9806209  69.2685776  61.4078598  34.4315529
  68.6647644  60.9086418  34.9814873  69.8674850  61.8249588  35.0508804
  34.1383095   0.3124351  21.3937836  34.4704094   0.1414667  20.5124702
  34.7448387  -0.1499686  21.9721756  81.4747086  14.4948158   2.3425081
  81.0715179  14.5458717   1.4758692  82.2749710  13.9880028   2.2048779
  21.0579128  46.0583916  11.9984007  21.1049366  46.8728447  11.4977160
  21.0884800  46.3376579  12.9134455  25.2535877   2.4404106  77.0020294
  24.5009842   2.5271435  77.5870895  25.1250801   3.1232300  76.3436432
  42.9302940  63.6414185  25.4332027  43.6407967  64.0019684  25.9636993
  42.7715950  62.7732048  25.8036728  33.8998909  42.5093956  50.5640755
  33.4344749  43.1648636  50.0444794  34.2937698  41.9254799  49.9158974
  22.8212261  49.3910332  83.0417175  22.8040504  49.1043930  83.9548340
  21.9120331  49.3194504  82.7510757  28.1152267  24.1838131  70.6734543
  27.3482304  24.5283394  70.2160187  28.3420677  23.3869419  70.1941071
  42.1539993  62.4051247  70.4255905  42.9121590  61.8208275  70.4301758
  42.1585312  62.8101845  71.2928467  85.8859634  31.7249832  16.2884121
  85.3801575  31.5618591  17.0845184  85.2998657  31.4701118  15.5758371
  31.3747540   0.5121117  44.8072853  31.6640930   1.3364438  45.1984253
  32.0912056   0.2586674  44.2253075  81.2723770  57.8481293  11.7789688
  81.6920013  58.0685501  12.6105738  81.9953995  57.5921364  11.2063084
   1.7738432  52.5223923  14.7510700   2.0319676  51.6400185  15.0175714
   0.9877798  52.7074738  15.2649584  54.0795059  61.1063347  88.6624908
  53.9296913  61.7136536  87.9379578  54.4617081  60.3315125  88.2504120
   5.4854722  39.3291664  70.8683472   5.4607048  39.0035896  69.9685593
   4.7722130  38.8679390  71.3096619  54.6206131  15.2073536  40.1190910
  53.8482590  14.6638088  39.9633369  54.2797318  16.1006737  40.1639214
  63.4591408   4.2070189  24.0370693  64.3773346   4.4755216  24.0044327
  63.4721756   3.2797606  23.7998905  84.2725906  39.7685127   2.2458262
  85.0658951  40.0886421   1.8163824  83.9961319  40.4919930   2.8083026
  65.9223938  66.4215317  17.1390457  66.2437744  65.5747299  16.8294239
  65.3763199  66.2083511  17.8957367  44.4662704  33.0724907  11.9950571
  45.2993393  33.5216293  11.8518744  43.9210472  33.7171173  12.4460812
  47.0779533   0.3253101  71.7486496  46.6706963   0.6635173  70.9511642
  46.5632782  -0.4508568  71.9697952  10.2157450  63.5085068  82.2940750
   9.8018942  63.7117767  83.1329117  10.4735193  64.3602676  81.9415436
  14.6794062  38.6121521  54.3660202  13.7979689  38.8878555  54.6175957
  15.0350161  38.1993752  55.1530342  86.4360428  39.4892044  48.2016907
  86.0951157  40.3816566  48.1423149  85.7088394  38.9781532  48.5569763
  49.2780228  64.2118378   7.0884676  48.5721359  63.9020805   6.5210152
  50.0724220  64.0970688   6.5669398  51.2605591  24.1503506  13.6652479
  51.1765327  23.2023163  13.5632524  51.3888245  24.2797108  14.6049528
   4.1599355  41.2216339   1.3047757   3.9605827  40.3621597   0.9335679
   5.0392790  41.1263657   1.6707151  54.8601875  66.1931686  12.2439613
  54.5943336  67.0510330  11.9128780  55.5080070  66.3880386  12.9211531
  78.7773438  60.6243553  64.8091507  78.2250900  60.1346741  65.4186249
  79.0657272  59.9723473  64.1704407  28.8194237   7.6899199   9.1747093
  28.9619026   8.3112192   9.8887949  28.3953590   6.9395790   9.5911102
  25.6055889  49.3352699  82.1712646  25.6479912  49.3322601  81.2150116
  24.6733971  49.2471008  82.3699570  35.3052788  67.3326340  19.1422348
  35.4238853  66.9750595  18.2622890  34.6414108  68.0140381  19.0363979
  34.6008835  37.7316360  61.3541183  34.5165596  38.3664398  62.0655594
  35.0434227  36.9823761  61.7528687  63.7656326  25.7213631  13.2995319
  63.1442184  25.0525875  13.5873089  64.6258698  25.3438263  13.4830675
  30.0838947  16.2683678   3.9063497  29.7098827  17.1341076   3.7425227
  30.4788380  16.0162258   3.0716777  45.5953827  49.7840881  72.7288284
  46.4618492  49.9102020  73.1155624  45.4209747  50.6004982  72.2605362
  28.2851830  36.6061745  64.2246704  28.3912067  37.0134468  63.3649483
  27.4005489  36.8495102  64.4975128  80.0758362  45.4267769  87.3583679
  79.2743683  45.9472198  87.4132767  80.3132172  45.2556725  88.2697449
  64.7181854  47.0042763  43.6731110  65.1110611  46.2215233  43.2868805
  63.9391060  47.1683311  43.1417389  68.2886276  62.8146973   2.3997068
  67.9716263  61.9133453   2.3422318  68.7210007  62.9705276   1.5600623
  62.6368408  22.7850189  21.6474686  63.0173874  21.9309998  21.4423637
  62.7028236  22.8541298  22.5998878  78.8048630  60.3593216   4.8676844
  77.9315567  60.7287598   4.7369790  79.2620468  60.5279999   4.0438137
  85.2001266  21.1166649  33.9397697  84.5459518  20.6934223  34.4957886
  84.8848724  20.9733124  33.0474167  68.1372986  26.2535019  27.4942245
  68.4131622  26.6965256  28.2966328  67.8905411  26.9633713  26.9014111
  39.7690086  63.1562080  17.5008259  40.1508369  63.9396858  17.1050930
  39.6147614  63.3997879  18.4135742  68.9141464  25.5233345  19.9796886
  68.9123917  25.4441643  19.0257702  68.1114502  25.0824223  20.2580910
  37.8253784  48.9209213   9.3968334  38.3008881  48.8048134   8.5742521
  37.3795242  48.0853691   9.5357456  60.4421272   7.8578668  82.7629471
  59.6578979   8.2627306  82.3923950  60.1177254   7.0825996  83.2211533
  66.5701370  53.4161148  34.7990761  66.3057327  52.5969772  34.3803444
  65.8056107  53.6814461  35.3102913  76.0031662  25.8585262   0.5498819
  76.0129700  26.5203114   1.2413849  75.7382050  25.0526772   0.9933158
  41.2908325  12.9768305   5.3835745  40.5318909  13.3922119   4.9740634
  41.1835632  12.0442801   5.1962934  40.1808014   9.5271826  68.9023895
  40.1477280   9.8027563  69.8184662  39.3165474   9.7472477  68.5547180
  24.7642097  69.1260071  36.9624596  25.5895157  68.7111206  37.2134094
  25.0252476  69.9539032  36.5591278  50.9183769  67.8008652   6.2067170
  50.8442383  67.3339920   7.0390434  50.1728783  67.4922180   5.6917405
  31.5309887  42.0278854  36.4596138  30.6409264  42.1368980  36.7944794
  31.9843102  41.5319290  37.1413460  36.6489182  23.8349876   8.5516424
  36.1334457  24.5765762   8.8687620  37.2297745  23.6177883   9.2807941
  12.6569967  15.8234558  15.9876795  13.4559870  15.3294725  16.1716022
  12.7924547  16.6672134  16.4189053  52.9071617  26.6081676   9.0963268
  52.5038071  26.0392818   8.4406548  53.8485222  26.4989414   8.9616480
  66.1869125  58.2960587  51.7865906  66.9204025  58.0750542  52.3605080
  65.8557205  59.1259041  52.1299553  42.6428528  64.6253662  28.7413559
  41.9724960  63.9422531  28.7270641  43.2709732  64.3586349  28.0701294
   7.7505512  70.5584335  30.3951569   7.5442410  70.5575562  31.3298569
   8.3109818  69.7921448  30.2728634  46.8118668   9.3275032  21.9164162
  45.9223709   9.2229462  21.5786304  46.7221107   9.9485397  22.6392498
   6.6776972  32.2146530  22.2310429   6.1099067  32.4491234  22.9651203
   7.3919697  31.7177238  22.6299267  73.9471970  50.6084290  77.4247437
  74.7388763  50.2313499  77.0409546  73.5830765  49.9049797  77.9621506
  43.9615402   7.6795454  46.8083420  43.2128525   7.9964275  46.3030815
  44.0067482   8.2664204  47.5631714  76.6019211  46.8031235  79.5733032
  77.0752792  46.3814430  80.2904892  76.2340317  47.5963211  79.9628220
  28.4282570  31.0269566  84.5856323  28.2890263  30.0829887  84.6616058
  27.6047974  31.4150906  84.8814316  30.2098389   4.0006027  24.9048004
  29.9425316   4.6716614  25.5328598  29.5916195   3.2830706  25.0433083
  60.9540291  49.7743988  35.0409203  61.7280540  49.9167671  34.4960861
  60.7953300  50.6214180  35.4575806  29.3477421  63.8259697  16.7606773
  28.4432468  63.9957008  17.0239468  29.6248684  63.0950851  17.3131638
  61.0934639  67.9812164  72.5811691  60.3225899  68.5184250  72.3984299
  60.7375374  67.1272964  72.8268738  35.2348747  55.9733810  70.4968185
  35.1604805  55.7061386  71.4129410  36.1539230  56.2200279  70.3931503
  47.4334297  45.6134987   4.5701094  46.7240486  45.6887970   5.2083406
  47.5395813  44.6711349   4.4400640  21.6250725  68.3508148  73.9022141
  21.3821697  68.7516479  73.0676041  22.1100636  69.0346298  74.3641663
  36.2262955  32.8889313  14.5904522  36.1230202  32.0953636  15.1156330
  35.8035774  32.6813431  13.7571154  32.4579964  42.0796890   7.2506189
  33.3682861  41.9664955   7.5241022  31.9449730  41.6905556   7.9588652
   4.3449287  42.9557724  77.6869812   3.8917258  43.3820572  78.4143906
   5.2515984  43.2532616  77.7623596  21.3670559  62.9316673  51.9560890
  20.6636810  63.2796936  52.5041542  22.1696415  63.2706604  52.3525391
  62.9517784  71.0207520  71.4147186  62.2321358  70.8590393  72.0247955
  62.5227966  71.1663284  70.5715027  52.2384071   0.6639340  70.6380463
  52.1964722   1.5899310  70.8768005  52.1921043   0.1988741  71.4733963
  22.5917759  40.2159500  74.0367203  22.4791203  39.3437538  74.4146271
  23.0734978  40.0642662  73.2235947  11.6961851  55.1014786  72.5992126
  12.4609356  55.5031090  72.1868057  12.0605116  54.4346390  73.1812973
  65.4269562  14.4948416  60.1089287  66.2098160  14.7792473  59.6372604
  64.8843689  14.0751314  59.4413414  63.4205666  58.2784691  18.7856503
  62.8255997  58.1862564  19.5297890  63.7575874  57.3948936  18.6375313
  77.6404877   4.7845664  19.7164135  78.4559708   4.4149499  19.3778839
  77.8751907   5.1360641  20.5752468  13.5150995  65.0471420  75.8202896
  13.3152895  65.3517456  74.9351196  13.5684967  65.8474655  76.3426437
  55.7352753  69.2937012   3.0014760  56.3324051  68.7796402   3.5449946
  55.8850975  68.9732895   2.1120253   2.9025795  65.8820267  20.7146015
   3.6850235  66.1046600  21.2190304   3.0321808  66.3120193  19.8692951
  75.8471832  27.2612324   8.1241350  75.9683151  27.8173714   8.8937254
  75.0180054  26.8100853   8.2827606  22.7543640  50.1726913  78.8315125
  22.1275501  50.3900871  79.5214920  23.1224079  51.0160599  78.5678635
  29.5735035  24.7047539   9.8245859  28.7538891  25.1991692   9.8202658
  29.9384518  24.8383999   8.9498377  68.6807709  41.8461609  40.5501213
  68.2434311  41.0284653  40.3127670  68.7357635  41.8198357  41.5053787
  67.1132965  16.5520477  37.8122940  66.3970871  15.9697886  38.0657730
  66.7751617  17.4326038  37.9751434  60.4543762   7.8667111  33.4345360
  61.3688049   7.6120334  33.5577736  60.1280632   7.2695298  32.7613869
  74.1165848  12.7110395   5.5224905  74.5173721  11.8510456   5.3959661
  74.6286316  13.1130171   6.2242384  44.5254288  70.9544220  47.1832428
  43.5996170  71.1410675  47.3390312  44.7739944  71.5494766  46.4758835
  72.4408340  66.0746155  43.3325081  73.1616440  66.2705765  42.7339516
  72.4274445  66.8132095  43.9412193  55.4483719  56.9910431  43.4836197
  55.3571777  57.8504295  43.0720749  54.5515099  56.7280884  43.6903267
  24.0100689  45.0383568   3.7907188  24.4750919  45.4679222   3.0727627
  24.6076965  45.1027451   4.5356531  67.0584030  13.9250860  71.8561096
  67.9420090  13.9641294  72.2220840  67.0806427  14.5265617  71.1118164
  41.4229736  63.5295486  40.8584137  40.5371590  63.6252670  41.2082748
  41.7090874  62.6684341  41.1631317  62.3087234  19.6054249  53.6231308
  63.0687408  19.0237980  53.6052818  61.6407204  19.1422253  53.1177101
  60.4612427  26.3518505  13.3754263  60.5762177  26.6970062  14.2607965
  60.3915749  27.1298847  12.8222179  50.7671852  47.1983871  57.3712234
  49.8696671  47.5310936  57.3718834  51.2762566  47.8834610  56.9379158
  27.6946125  67.7988586  74.4586258  27.5388203  67.9875259  73.5332260
  27.7777767  68.6601181  74.8679504   9.9565496  46.4011154  50.5212517
  10.8588667  46.0828667  50.5490913   9.5985518  46.1817284  51.3814507
  29.1914845   9.4328308  74.7512970  29.9088097   9.4814920  74.1193848
  28.5449104  10.0604877  74.4284592  32.8070450  69.7794342  54.7139969
  31.9421463  69.5986176  54.3459167  33.0498581  68.9701691  55.1638451
  57.0960655  19.4353065  13.5516443  56.4033394  20.0209980  13.8571396
  57.7310753  20.0146160  13.1304607  17.5606537  49.2562370  31.6283627
  18.2859554  49.6130295  32.1410713  16.8344498  49.8587036  31.7892780
  50.9147873   8.4110651  11.7095547  50.4352074   8.4009352  12.5378857
  51.3280716   9.2740259  11.6826143  17.3185749  16.0341549  66.0601807
  18.1444702  16.4726257  66.2648010  17.5305462  15.4528446  65.3298569
   3.4597538  42.1052094  50.0494308   4.1588163  42.5690727  49.5885887
   3.9179008  41.5087509  50.6415215  64.2974396  23.6222477  78.9186249
  64.3462372  23.6630898  79.8737106  64.8961716  22.9151649  78.6782303
  16.1800499  33.7994270  81.8860397  16.8957825  33.9831543  82.4944839
  15.8682880  32.9303207  82.1384125  32.9120560  57.0016708  49.3664093
  32.9718475  57.7568245  48.7812614  33.1267700  56.2514877  48.8120079
  27.4234848  36.9342270  80.6944809  27.2301826  37.8318939  80.9647751
  27.9400043  37.0309639  79.8944244  54.8898582  37.2852135  16.5848274
  55.6829033  37.5734749  16.1329212  54.4123840  38.0938759  16.7700596
  70.7612610  16.4751968  65.0727997  71.4012909  15.9645567  64.5769730
  70.4159775  15.8616714  65.7213364  13.2964945  26.0420437  51.9733391
  12.9785624  25.6449337  52.7841721  12.9231071  25.4997158  51.2785759
  50.9435310  37.3755379  29.4568119  51.8473511  37.0862350  29.5818920
  50.8691635  37.5283890  28.5148258  59.1727142   8.2709160  76.9556656
  59.4008141   7.3431406  77.0142670  59.8808365   8.7212076  77.4161301
  42.9945755  39.9792290  10.8977470  42.4900131  40.7925797  10.9081936
  42.3415604  39.2940903  10.7549791   3.3680630  45.1597023  88.0356445
   3.6280308  46.0104637  88.3889923   4.0361547  44.5533142  88.3552933
  28.0535603  32.4886513  81.9238510  27.1495953  32.7637863  81.7709503
  27.9870682  31.8105240  82.5961227  53.9888878  60.1465111  26.8684120
  54.0871315  60.5161934  25.9909649  54.6152382  59.4231758  26.8950672
  34.6098518  59.2285233   9.2977562  33.8183289  59.2734489   8.7613764
  35.2681084  58.8404121   8.7213001   1.7254837  30.7595558  54.8112450
   1.8976334  30.1452656  55.5248566   1.1472780  31.4180622  55.1963158
  80.5269699  50.4651566  37.5857849  80.6174622  51.1731033  36.9479332
  79.6019821  50.2224121  37.5445633   5.8634214  22.9295349  83.2290268
   5.1984663  23.1567020  82.5790558   6.2522650  22.1188698  82.9006119
  71.8243179  52.5475311   6.4513321  72.1800766  51.6700745   6.3108382
  71.1943970  52.4393272   7.1638789  47.7013054  54.3147202  81.3308868
  48.2949791  54.1962585  80.5894318  47.0249825  54.9078751  81.0037994
  47.6232719  16.5680695  71.8715057  46.6928711  16.6847763  71.6792297
  48.0727234  16.9235764  71.1047974  67.8452148  42.6164207  70.5910645
  67.7856293  43.3919907  70.0332413  67.4241028  42.8775101  71.4100418
  33.9863014  57.9990196  40.4427490  34.4828339  57.2770576  40.0574455
  34.6467628  58.5393982  40.8763504  14.3325062  47.7938576  75.6510239
  13.9287462  47.5589943  76.4865189  13.6569805  47.6096077  74.9983749
  57.8241615  49.2852287  31.6038628  58.4893723  48.7766724  32.0676498
  58.3166809  49.7901344  30.9567699  35.0519524  43.0222778  48.0554466
  35.1204987  42.0795174  48.2062416  35.9378586  43.2909470  47.8121071
  39.8531227  58.4000168  88.2694016  40.6167564  58.1460495  87.7511368
  39.1204529  58.3530731  87.6552200  39.7639427   6.6236358  69.0834427
  40.0447464   7.5049586  68.8371658  38.8685265   6.7377915  69.4019165
  71.2945862  12.8327951  22.8388195  70.4310150  12.7879200  22.4283657
  71.8983612  12.5312033  22.1600475  23.3357315  32.9689598  84.0064392
  22.7734604  33.6307602  83.6038132  23.9253387  32.6958733  83.3035736
  22.7758827  56.8567200  46.3874168  22.7070026  55.9062500  46.4773903
  22.8767605  57.1755180  47.2843132  29.7390499  44.4448090  20.6207218
  30.0349712  45.3486557  20.5124435  28.8967133  44.4126129  20.1672153
  25.9545975  42.1140404  26.3400402  25.9261227  42.3358383  27.2707520
  25.1165981  42.4218445  25.9947205  23.1088142  33.4552231   7.6991124
  23.3417149  34.1688728   8.2929955  22.3838196  33.8028221   7.1796999
  27.1271839  52.3891411  29.4712830  27.3594875  51.4976692  29.2113953
  26.2720299  52.5407906  29.0688591  46.8374023  24.8188400  41.6781769
  47.7143440  24.6691303  42.0314407  46.2631874  24.2870255  42.2292480
  69.1374359   1.5647815  58.9728622  68.2488403   1.2839659  59.1914215
  69.6723099   1.2587162  59.7053032  19.9769726  12.0586205  35.4934959
  19.9273911  12.7382669  34.8212967  20.3154850  11.2906876  35.0331459
  82.6708603  22.4019852  72.0299683  82.0245285  22.9262314  71.5570526
  82.5831604  22.6792183  72.9419327  34.1309967  46.7877350   3.4702091
  33.3797493  46.3020477   3.1296718  34.1258812  47.6105652   2.9811704
  77.6331940  24.4033451  85.3818665  78.0689392  23.6351566  85.7509842
  77.1760178  24.7990208  86.1239319  21.6453705  28.4846458  87.9900589
  21.6044960  28.5237217  88.9455872  22.4166679  29.0035648  87.7619019
  77.8028030  69.0819244  85.3635178  77.5595703  69.3663559  84.4825134
  78.6155014  69.5516052  85.5510025  42.9208298  34.4121742  15.2921457
  42.3953896  34.3731918  16.0912876  42.6966362  33.6109924  14.8187752
   8.5793772  24.6109409  80.6926804   7.6417594  24.4439526  80.5966568
   8.9209690  23.8228931  81.1152039  48.6459656  11.9171896  36.0813751
  48.9776077  12.5756102  35.4708595  48.8067741  12.2912502  36.9476585
  78.5140228  17.6484089  25.1221199  77.6734543  17.5515461  24.6745834
  78.4093933  18.4324074  25.6612206  19.8395176   2.1348290  77.6974182
  20.1368027   2.9812572  78.0312042  18.9992962   1.9878021  78.1317520
  22.1620350  16.8888187   6.1666093  22.5899353  17.7281399   6.3359399
  21.8675880  16.5920620   7.0276952   1.1288561  42.9714241  47.5621033
   1.9659271  42.5380821  47.7287140   1.2877978  43.8903885  47.7776947
  49.6062012  22.9061413  16.1713142  48.7676888  23.2372494  16.4930286
  50.2500648  23.5428867  16.4815140  41.7683105  63.4358215  63.1318321
  42.5588684  63.3103447  63.6567230  41.1302109  62.8319016  63.5117493
  64.2040710  40.9514961  79.2013702  63.8811150  40.5559273  78.3917694
  64.4073944  41.8556213  78.9616852  69.6826477  56.1156311  84.7001495
  69.1756668  55.3305931  84.4929886  69.2954025  56.4435844  85.5117569
   1.0672234  31.4571133  28.9241009   0.7232160  32.1279716  29.5138798
   2.0062230  31.6371517  28.8782921  57.5093384   2.1261725  73.4988708
  58.1743355   2.1324010  72.8104248  56.6784401   2.2035756  73.0299911
  70.5502548  55.0844460  70.0810318  71.4547195  55.3762474  69.9669037
  70.0657883  55.8827248  70.2914505  49.6712036  11.6439962   2.1416545
  49.1706848  12.4577103   2.0818086  49.2903366  11.1829453   2.8890519
   4.6737170   0.0612575  25.3587837   4.5693064   1.0120625  25.3227291
   5.2206602  -0.0905764  26.1295185  69.1082687  61.1428490  38.2675705
  68.4861755  60.8336067  37.6090927  69.4104538  61.9874649  37.9335938
  83.6449966  71.2212296  75.4331970  83.2065964  71.1817398  76.2831802
  83.4039841  72.0771713  75.0789261  85.0467529   5.5224509  84.6314392
  85.2807770   6.0818005  83.8907700  84.1107101   5.3563361  84.5197601
  74.5632782  45.1987991  59.4222183  74.8102951  46.1092300  59.5844955
  74.3203125  44.8593712  60.2836075  25.7285690  62.8871498  62.8756104
  26.3249187  63.6060448  62.6663513  26.0011311  62.5953751  63.7455597
  74.4646759  40.4506264  54.6104698  74.9513321  41.2456932  54.8278885
  73.5735855  40.7548027  54.4382248  72.7933807  24.2214928  86.0000000
  72.9422302  24.2775517  86.9438934  72.3134308  25.0213528  85.7852936
  18.1214275  41.7511330  59.0779457  18.1447296  40.7949982  59.1166420
  18.3890648  42.0328369  59.9527283  28.2321968   3.4057879  33.1446800
  28.9800797   3.5816336  32.5737305  28.3636799   2.5051792  33.4410744
  60.4116936  55.7222710  78.1888275  59.9376717  54.9385910  77.9106522
  61.2192039  55.3878441  78.5791092  72.8002396  59.8013802  61.1062851
  72.4036331  59.1475906  60.5305328  73.7296829  59.7894592  60.8777618
  87.0081863  44.8958817  36.4185143  86.1237488  45.0036774  36.0686798
  87.0076752  44.0203362  36.8053589  78.7337418   4.1620817  87.0547409
  78.6708908   4.6167297  86.2147522  78.5230026   4.8314309  87.7057343
  65.9272079  26.8053036   4.0333409  65.5315628  26.1313286   3.4806600
  66.8533020  26.8002434   3.7913711   0.5722573  63.6346626  57.6206245
   0.3080297  63.0486755  56.9113770   1.5097694  63.7699738  57.4828110
  30.7734661  41.8566666  87.3670197  30.1607971  42.5787125  87.5067215
  31.4026241  41.9342384  88.0842209  12.2967167  51.4517517  76.9789963
  13.0074167  50.9371414  77.3615112  11.9843321  50.9211044  76.2461472
  36.5430603  38.7349396   7.9907818  36.7040787  37.8679199   8.3630486
  36.0361519  39.1930580   8.6611586  40.5962257  14.4489946  22.8180408
  40.2239380  13.5737801  22.9259033  39.8500061  15.0404291  22.9159908
  70.9951477  27.5540581  23.9930229  70.6211624  26.8651962  24.5424213
  70.3972931  27.6174011  23.2481842  68.1356659  51.8626480  69.0407944
  68.3432465  51.4818230  68.1875000  68.1441803  52.8078117  68.8897171
  68.7482071  15.5096760  30.2148285  69.3105164  16.2572556  30.4177284
  69.3572311  14.8037577  29.9980278  64.6748886  71.8327408  20.8858852
  65.5308914  71.5402908  21.1988792  64.6059875  71.4699020  20.0028038
  47.0312843  19.6859303  76.2997971  46.3316574  19.2367210  75.8254929
  47.6607208  18.9956436  76.5084610  48.8072014  57.0021935   3.3732178
  47.9924393  56.9786606   2.8713768  49.2781830  57.7614479   3.0297935
  80.7360840  29.5807228  84.1960983  79.7889404  29.5974503  84.0587006
  80.9598846  28.6501389  84.2086105   9.3661108  23.9313030   1.8425698
   9.4206848  23.6019173   0.9454867   9.0230265  23.1942883   2.3478744
  33.1627045  14.5184069  75.7029953  32.4660530  14.0538588  75.2392044
  32.7968407  15.3853331  75.8785324  57.8620987  50.6487617  44.1253281
  58.5408859  51.2838020  43.8968468  57.4119949  50.4716682  43.2993317
  19.7687454  31.3880978   7.1563268  20.0350018  31.3558693   8.0751858
  18.8155117  31.3043442   7.1801004  79.1651840  11.2726488  48.4621429
  79.2135391  12.0700731  47.9348793  79.1017380  10.5649261  47.8207893
  26.8656139  47.9044533   3.2786508  27.7741795  48.1150818   3.4940045
  26.9210892  47.0934753   2.7732105  23.8903122  26.4443264  78.2734528
  23.9870720  25.6157055  78.7427673  22.9594784  26.6545830  78.3480911
  66.2177658  41.4241943  51.4002380  66.4446869  42.0761032  50.7371025
  65.3260498  41.6511917  51.6639786  75.8029022  24.2745743  41.7216263
  75.1630096  23.6939659  42.1335297  75.4975433  25.1565742  41.9339066
  48.3267326  52.0379906  82.4857788  49.2745209  51.9361115  82.5726929
  48.2038116  52.9630508  82.2727432  85.1666183   2.2916074  60.3643799
  84.2166595   2.3466346  60.2605286  85.5120544   2.9490821  59.7605324
  10.4474573  50.2137566  44.1210709  10.6018925  49.8300591  43.2578468
  10.9223089  51.0446587  44.1022797  16.0214252  18.2078838  57.0108566
  16.7493305  18.3429775  57.6175995  15.7999716  17.2814198  57.1049576
  81.7460556  23.2047348  42.8258972  82.2274551  22.3925495  42.9835014
  81.4887009  23.1558228  41.9052429  22.8635139  15.5779839  72.6066284
  23.3367710  15.5875692  71.7746582  22.9205303  16.4788818  72.9250031
  59.6867943  68.6885529   5.5839128  59.9391670  69.2167282   6.3412552
  58.7391663  68.8050919   5.5157061  25.4528236  60.1821556  63.9637222
  26.1871529  60.1452065  64.5766068  24.7405853  59.7298126  64.4157562
  62.5279617  54.3317375  79.6647644  63.0887566  53.6429482  79.3079605
  63.1372375  54.9588814  80.0542526  18.7198524  18.3754044  85.3568497
  18.8925037  19.2894573  85.1311722  19.1357021  18.2568798  86.2108154
  66.0697021  39.5977936  14.7784719  66.5033875  39.1065674  14.0807295
  66.5793762  39.3988533  15.5638943  76.4949951  11.0797014  14.6779566
  77.0285339  11.5015173  15.3514795  75.6049423  11.3868570  14.8502731
  24.0803909  28.7922421  83.3400421  24.2044659  27.9620380  83.8000336
  24.2182045  28.5777817  82.4174118  51.3079872   3.0729120  78.8477020
  51.3390884   2.3353295  78.2384109  50.3742104   3.2483270  78.9639587
  36.8255272   1.6927159  22.9574146  36.4695854   2.4064260  22.4281158
  36.6313286   0.9017254  22.4545689  34.8639412  48.5327454  72.5312958
  35.1160660  49.3159790  73.0203857  35.4769974  47.8590317  72.8254166
  51.4095078   0.5107123  29.7072906  50.9777908   1.3642583  29.6710739
  50.6905403  -0.1211328  29.7167397  78.9541702  60.4335709  26.5768642
  78.9152069  60.0787849  27.4650326  78.5844193  59.7430534  26.0266819
  64.2470856  14.2453012  44.6195221  65.1698914  14.2451830  44.8738174
  64.0484390  15.1641493  44.4392776  51.4680786  38.7585411   2.4963658
  52.0355034  39.5042267   2.3008928  50.5797920  39.1004372   2.3949354
  59.4457359  61.7541542   1.8527526  59.8192177  62.5941544   2.1194777
  60.0176582  61.0996323   2.2536757  84.6584625  25.8862000  73.8550110
  85.3240433  25.3107853  74.2320251  85.1447830  26.6590672  73.5679550
  31.8415375  42.7771263  57.7623177  32.0449600  43.3465767  57.0203094
  31.4369659  43.3582764  58.4063797  56.1246262   2.5227370  51.9319763
  56.1782951   3.0252278  51.1190491  55.4588203   2.9753015  52.4497795
  40.2843666  26.3831329  52.7308044  39.4908562  26.6838436  52.2879181
  40.1859589  26.6890182  53.6324615   3.9751790  68.9397659  25.5426788
   3.8670537  69.8196945  25.1817703   4.2419686  69.0843506  26.4505062
  12.3399191  24.2884789  11.6874352  12.9215450  25.0210991  11.8904409
  11.4720049  24.6852245  11.6129389  13.1577177  46.5444870  39.6019821
  12.6948729  47.0233421  38.9144478  13.8921261  46.1280060  39.1509628
  54.7581978  13.9350805  75.2059479  54.8968010  14.8541632  75.4346619
  55.6335831  13.5484314  75.2268066  61.0055771  38.2141571  19.7782269
  60.0594368  38.1029129  19.6850796  61.2035751  39.0075836  19.2807331
  32.1653328  70.1072464  86.5261002  32.3259430  69.2786179  86.0746536
  32.9443665  70.6333008  86.3455200  33.0277824  47.7361221  70.5475845
  33.0870667  46.7965965  70.7208176  33.8217201  48.1021080  70.9373856
  59.7838745  34.2404327  88.7491455  60.3623047  33.5537262  88.4173660
  58.9010124  33.9191322  88.5659637   9.7615433   1.7826339  71.2434235
   9.5669727   2.7193136  71.2117157   9.3785086   1.4862586  72.0690613
  83.6027527  49.1600952  14.6556768  82.9853897  49.8827019  14.7693977
  83.0520401  48.4047050  14.4499168  21.7913570  29.3001785  72.4395828
  22.2272129  29.2350655  73.2892990  22.4885521  29.5443363  71.8308640
  75.0107956  29.5563774  77.8300781  75.6415634  30.1208458  77.3831558
  74.6062927  30.1226177  78.4873276  40.4197273   7.4868808  83.1195450
  41.2203445   7.0316505  83.3803329  39.7335358   7.0918045  83.6574020
  70.9950104  20.0944157  12.9272432  71.0200958  19.1522141  13.0941553
  70.1691360  20.3843803  13.3146496  20.4438114  71.2645187  85.5746841
  19.5414219  70.9819489  85.7232742  20.6952896  70.8411331  84.7538757
  69.9444885  24.0148354  87.8046875  70.3860931  24.8119392  88.0976791
  69.7421188  23.5424919  88.6122513  20.4511032  44.4613571  32.9331055
  19.7601070  43.8011131  32.9863358  21.1934090  44.0002213  32.5425072
   6.1266279  30.7581253  28.9176826   5.9646697  29.8444443  29.1526031
   6.4945602  30.7168713  28.0349846  12.0520706  69.7734222  61.0657539
  12.2104359  70.5275803  61.6335564  12.6124916  69.0838318  61.4215927
  74.8501205  47.0381012   5.8265467  73.9967422  47.1962814   6.2302165
  75.2267838  46.3206215   6.3360362  73.0188751  45.7792969  28.6639729
  73.0009613  45.8532829  27.7098064  72.3105545  45.1694145  28.8702583
   2.8456066  41.1205673  82.5079956   2.6545293  41.8829384  83.0543594
   2.4199512  40.3907433  82.9578857  15.0884342  55.3398705  62.2401772
  14.9723034  54.4892426  61.8168831  14.3705416  55.8754387  61.9024963
  52.2004471   5.2671590  57.4040947  53.1035233   4.9498501  57.4061089
  52.1418839   5.8279085  58.1776314  64.1443787  14.4774580  66.7977524
  63.8148842  13.9435892  67.5206985  64.1168060  13.8954811  66.0382996
   9.9873276  41.1438675  71.0311737  10.2157421  42.0636368  71.1656418
  10.1092720  41.0015640  70.0924988  57.7816925  68.0734329  86.2193222
  56.8277283  68.0072174  86.1769791  58.0676575  67.2154541  86.5328903
  72.3397751   0.4598308  13.7848616  72.5485611  -0.1048617  13.0407104
  72.5198593   1.3460016  13.4710093  75.8807373  41.6624680  60.3851624
  76.0178757  42.5957108  60.5479164  75.7794342  41.5973015  59.4355698
  54.0729713  63.1368828  63.5690956  54.6902504  62.6817322  64.1418457
  53.5684814  62.4362602  63.1557579  58.7338867  61.6962929  59.3438568
  58.2936478  60.8675919  59.1549835  58.1867790  62.3594933  58.9230614
  38.2877655  65.7871933  10.1342058  39.2117271  65.6204071  10.3205233
  38.2985840  66.4445877   9.4385443  57.4071503  33.5771294   7.7724209
  57.3593979  34.4877739   7.4814219  58.3446846  33.3918686   7.8266587
  75.6332626   9.4652042  83.7237473  75.2984390  10.0684767  84.3872147
  75.7053452   9.9969292  82.9310913  26.9832478  22.9739685   1.5141708
  26.1031265  23.2093925   1.8077551  27.3866138  23.8080425   1.2736551
  72.7597122  38.5507469  75.2736664  73.1713791  37.8758736  75.8133926
  73.0162201  38.3307076  74.3781128  58.2571068  39.3976707  50.6234436
  58.3423157  39.6732635  49.7107430  57.3458939  39.5874290  50.8468628
  45.1663094  42.9073639  86.7624359  45.1587029  42.0061493  86.4399719
  44.7243042  43.4102554  86.0783539  48.7166977  33.0389671   4.7483521
  48.8592796  33.1127167   5.6919951  48.9453697  33.9020691   4.4033923
  60.1764679  53.1954384  86.4857788  60.4706879  52.8569145  87.3313980
  59.6633148  53.9732704  86.7045898  73.0422440  67.7186584  62.5823936
  72.7416763  67.4992905  63.4643059  72.2901382  68.1457748  62.1723442
  22.5669575  55.9834900   9.5948372  22.2822037  56.6658897  10.2026815
  22.5571918  55.1800613  10.1150675  29.5052567  60.7743340  50.1663513
  30.3553867  60.8788910  50.5936432  29.7161579  60.4604683  49.2870102
  29.4624176   8.2177591  69.2216949  29.0493717   7.4859295  68.7633820
  29.5753517   7.9051404  70.1193314   4.7588124  54.0890694  20.4709072
   5.5760498  54.3757133  20.0632420   4.7036104  53.1556282  20.2662888
  64.0795593  19.0671768  36.0128059  63.4832878  18.4731560  36.4686966
  64.2422333  18.6431637  35.1702003  18.3117790   8.7091684   1.7581459
  18.5232334   7.9275661   1.2476395  17.4114628   8.9203291   1.5110203
  10.8224335  43.0752449  84.4227600  10.7820711  42.8890610  83.4847107
  11.1565228  42.2676163  84.8130875   5.3458810  30.9872189  46.2078285
   4.6228199  30.3611298  46.2456207   4.9935532  31.7842064  46.6039391
  48.9874496  31.9653740  20.4447136  48.9457397  31.6183567  19.5536060
  49.5097427  31.3244915  20.9271164  60.6975555  36.6502686  84.3071289
  59.9172478  36.1434975  84.0823288  60.9808006  36.2931557  85.1488342
  14.2783566  56.1409569  19.3627529  13.7463894  55.3757973  19.5813255
  14.4284372  56.5759964  20.2020683  76.8255157  39.0877075  57.8628960
  77.2636566  38.8946762  58.6917534  75.9567261  39.3982391  58.1178627
  84.0799408  23.9291039  27.0929241  84.5493317  24.4927826  26.4779682
  83.7339096  23.2197227  26.5513783  48.0326767  66.0625305  77.1567612
  47.5099335  65.2619019  77.2010574  48.9152679  65.7607346  76.9418640
   2.1379664  40.1955528  86.6208191   2.3822007  39.2949715  86.8342056
   1.3140615  40.3371506  87.0870438  29.4265862  43.5336418   1.1802689
  29.8833523  43.3900871   2.0091162  28.5694828  43.1262932   1.3054529
  57.6123962  28.5206947  28.7640018  57.0687180  28.4796200  29.5507431
  57.1489601  27.9803085  28.1241264  44.4288483  48.7790413  36.7199516
  45.2341805  49.0581741  36.2843437  44.0454559  48.1349068  36.1246910
   2.6071997   1.7480056   9.6651068   2.7067571   2.1862864  10.5102282
   3.3506522   2.0557592   9.1466494   4.7533031   6.7827492  86.7970352
   4.2712431   6.1745119  87.3572998   5.4998765   7.0580549  87.3290710
  40.2477379   5.1655750  21.3108673  40.2814674   4.4965825  21.9946384
  40.5247726   5.9701891  21.7491379  80.2345734  56.3581390  86.4336548
  80.1449432  56.6692772  87.3344269  79.3364487  56.1926880  86.1469193
  65.1582718  37.0052834  41.4072495  64.6223221  36.5751801  42.0735817
  65.4292679  36.2965775  40.8237038  76.7452164  61.2223969  62.9762154
  75.9148712  61.3678741  63.4296417  77.4082336  61.2890511  63.6633835
   6.9778457  49.7019119  81.3612976   7.7529302  49.3246422  81.7774048
   6.2814064  49.0680733  81.5329132  70.5630569  33.5757027  49.6780815
  69.8113174  33.0377312  49.9264755  71.1532974  33.5242004  50.4298782
   3.4695363  59.9594727   6.5816851   2.6879630  60.1896896   6.0793171
   3.9946804  59.4323883   5.9794912  77.2394409  14.3499279  37.9495964
  76.3005905  14.1633844  37.9481392  77.3008575  15.2677650  38.2142372
  86.4451141  58.4243965  33.3496475  85.7455292  58.9205170  32.9245911
  86.8972015  57.9834862  32.6303101  22.9610405  17.5970936  33.5895576
  23.2550964  16.9642315  32.9343872  23.6015530  18.3067837  33.5414352
  31.1655273  11.1261606  17.6834660  32.0653381  10.8003855  17.6624088
  31.2431850  12.0234385  18.0076485  66.5733871  60.1388512  55.0692825
  67.3961029  60.0431023  54.5894890  66.1320038  59.2967720  54.9583130
  62.1877823  48.7023430  42.3392410  61.4586372  48.5766945  42.9465256
  62.3105240  47.8449783  41.9316978   1.5993973  61.8017235  19.5099907
   1.8809724  62.7118759  19.4174271   2.4008462  61.2904930  19.3979473
  64.7293091   3.1791978  66.6516266  64.5492096   4.0089774  67.0935135
  65.6800766   3.1679244  66.5414658   2.3498302  41.9404488  44.9667244
   1.8134973  42.3479805  45.6467972   2.6332676  41.1105919  45.3504333
   2.8098631  37.8514404  20.7035007   1.9342916  37.5088692  20.5239182
   3.3761771  37.4021606  20.0760727  58.8596230  22.5347233  75.7489777
  59.0307121  21.6140175  75.9471207  58.0775948  22.7479706  76.2580872
  47.9418716  49.9174690   6.4205861  48.6787338  50.1286469   6.9938831
  47.3212929  50.6338463   6.5544415  37.2469063  39.2873878  39.8096848
  37.1725197  38.3659973  39.5612144  36.9139900  39.7675476  39.0515022
  20.3158321  52.3019753  84.4618530  19.8397198  52.4031143  85.2860641
  19.6363049  52.1153107  83.8140640   6.1583772  38.7792397  60.8868904
   6.2935929  37.8383026  60.7746964   6.4731231  39.1655693  60.0696297
  18.9400787  54.7717896   6.9390440  19.1880150  55.2069702   6.1233363
  18.1668434  55.2491837   7.2397642  13.3068275   3.2870305   1.9939171
  13.0860186   2.4350951   2.3703229  13.9230404   3.6717997   2.6171877
  81.3700562  21.5505486  30.5445118  81.6406784  21.5095196  29.6272793
  80.7193832  20.8541946  30.6336365  77.2873001  42.6178741   2.3818579
  78.1592102  42.9742546   2.2115738  76.6867218  43.2905235   2.0607927
   9.3258753  31.6803303  11.8129082   9.7487679  30.9638596  11.3395557
   9.4710646  31.4757252  12.7366447   3.6527827  15.7998066  73.9890137
   4.4842339  16.2481670  74.1435928   3.2589083  16.2718277  73.2553329
  32.5552063  22.5084572  18.7361946  32.8269157  23.1891956  18.1205654
  33.1698189  22.5862446  19.4658718  73.5697250  19.4649887  84.3975220
  74.2435074  19.1957645  83.7732086  73.1698914  20.2383747  83.9997253
  74.8167267  12.0732031  16.7258091  74.0170593  12.4492102  17.0937443
  75.1810532  11.5439987  17.4353447  68.6168442  66.5776672   4.8910847
  68.1379471  66.2719040   5.6614108  69.4562683  66.1196213   4.9335132
  17.0966187  37.4807587   2.4641409  16.7548103  38.1810989   3.0199487
  16.5563221  37.5161438   1.6747998  22.9062252  42.9755745  69.5569305
  22.1725502  42.3637009  69.4972305  22.6856136  43.5427017  70.2957993
  44.5242577  51.1884384  63.2446785  44.9510040  52.0342903  63.3812866
  43.6175537  51.3309669  63.5163498  14.3809032  67.3841476  80.9425125
  15.3006535  67.2052994  81.1382217  13.9771290  67.5264130  81.7986374
   3.6001394  56.9230652   7.3023973   3.8748972  57.7943077   7.0166011
   4.3853316  56.5408821   7.6943660   8.5381308  46.3684196  64.9125977
   8.6713219  47.1119652  65.5005035   9.3414259  46.3264198  64.3937683
  77.4693069  19.3341198  64.6071091  77.5496597  19.1995411  65.5513840
  77.6365509  20.2684212  64.4832382  13.9555168  49.7757759  35.7878609
  13.4884844  50.2092018  36.5021820  14.6852779  50.3621483  35.5882454
  25.6858959  38.1776085  16.1183758  26.2785873  37.4361916  16.2418556
  26.2403374  38.8702011  15.7590141  79.8666229  46.7764778  48.5382195
  79.7909470  46.7706146  49.4924049  80.4203568  47.5333557  48.3465233
  58.0233879  38.2159462  19.2196655  57.3691483  38.1637917  19.9164314
  57.7930565  37.5053253  18.6211681  25.1760902  47.9838791  24.3253021
  24.2663765  48.2721634  24.2508278  25.5048370  47.9938011  23.4263821
  69.2446518  54.2155190  10.3431282  69.7757568  53.4191818  10.3422174
  69.7128906  54.8163643   9.7635012  67.2388763  45.2319374  44.0890617
  66.9435577  44.3853493  44.4241829  67.1172409  45.8353462  44.8220901
   0.9086668  39.1357117  33.9506874   1.0987866  38.4549217  34.5961418
   1.5309621  38.9739647  33.2415924  74.4732285   4.7568035  37.9685593
  73.7580719   5.1981106  37.5102615  74.5932922   5.2649884  38.7707825
  37.9966049  21.1088791  70.7368469  37.3947678  21.2730217  70.0108414
  37.7664223  21.7673645  71.3923187  51.8746719  52.1708107  23.7644749
  51.5665894  52.0325203  24.6601257  51.8271103  51.3052711  23.3585033
  56.3277855  12.2530079  17.9507942  55.8987350  11.6250792  17.3695412
  56.1080933  11.9520607  18.8324966  56.5223694  31.8305473  28.8283596
  56.2011261  31.2183628  29.4903755  56.8681793  31.2713184  28.1327229
  23.2756882  50.2280006  44.9854164  22.7060051  50.8502998  44.5332718
  23.0964985  50.3708038  45.9147873  13.5053349  37.0937958  45.0424423
  13.5135460  37.8851547  45.5808754  13.3798952  37.4133377  44.1489143
  68.3615417  68.6975937  21.6048241  68.2181091  68.3359299  22.4793854
  69.2351227  69.0866013  21.6468239  73.1647263  70.6724014  11.5209036
  74.0896149  70.4360275  11.5911045  72.9738770  70.6174622  10.5845318
  47.0984726  35.2099266  22.8814735  47.0366707  36.1041412  23.2173195
  46.1891861  34.9340591  22.7660294  64.5330658   8.5114317  52.4697495
  64.8569565   9.3437653  52.1254425  63.8777924   8.7605810  53.1214943
  34.6489372  63.5344963  38.9403343  34.6972313  63.4898033  39.8952713
  34.7820663  62.6317520  38.6512718  32.6004333  33.7992592   8.5912876
  33.2220535  34.4298019   8.2276402  33.0006599  32.9456482   8.4257755
  77.3056030   4.7649455  52.0681877  77.4411926   5.3745885  52.7935715
  77.5986481   5.2451706  51.2937584  46.1923485   3.6863658  78.1466599
  45.5477104   4.1401424  78.6895828  45.7345276   3.5155137  77.3235931
  83.6094055  70.6582870  62.2147293  83.6333389  70.4101028  61.2905731
  84.2747345  71.3415680  62.2965393  61.0744057  69.1045914  50.2245674
  61.3281441  70.0059509  50.0260582  60.1237984  69.1411896  50.3305817
  70.4661789  24.6716290  60.3349419  69.7124405  25.1724720  60.0230598
  71.2188339  25.0804825  59.9076424  73.3548508  40.2271652  29.2191486
  73.4338837  41.0118027  28.6766319  73.3159637  40.5590782  30.1161175
  12.0922823   2.4764616  83.8427124  12.7606201   3.1616983  83.8401489
  11.3235512   2.8931208  84.2321777  32.9264793  33.2464523  25.8686275
  32.1858177  33.4543266  26.4382286  33.4487839  34.0484352  25.8526134
  77.2750626  40.7780380  78.4058151  77.0309830  40.5223846  77.5162659
  78.2188873  40.9309502  78.3606186   0.8315527   5.2094307  19.5666065
   0.4591030   4.9531784  18.7228947   0.1328961   5.7021651  19.9970989
  19.5823307  14.9095154  53.7956161  19.8914146  14.0035906  53.7948494
  19.1306973  15.0092068  52.9575729  36.1823578  56.6281738   2.9348752
  36.2052002  55.7032700   2.6893852  35.4278946  56.7023048   3.5192726
  11.6654949  33.9064941  54.5930099  11.7033005  33.6253471  55.5072098
  10.7627335  34.1998711  54.4697876  44.2779770  45.3052292   9.0853529
  43.3227959  45.3667068   9.0767145  44.4603004  44.4690857   9.5141335
  50.4912720  23.4171124  75.8488922  50.9839287  23.5892792  75.0464706
  49.6727219  23.0229588  75.5474777  63.2784309  22.6010475  10.1075659
  63.7365952  22.8771133  10.9013577  63.3364563  21.6456604  10.1175222
  66.6495056  69.2690506  63.7347908  66.4861908  68.4699097  64.2357178
  66.0439606  69.2161865  62.9953651  50.7809219  25.0858326  35.8524323
  50.2474136  24.3492966  35.5539055  51.1374512  25.4645386  35.0488777
  72.8994904  15.3496065  25.9909725  73.3254395  14.6368933  25.5146999
  72.3778763  14.9105654  26.6628284  51.1154861  18.3496151  84.1999893
  51.4451180  19.1483631  83.7881927  51.3335152  17.6532383  83.5805130
  75.0593338  33.1325378  60.8154411  75.7845383  33.0045967  60.2039375
  74.6969986  33.9871559  60.5818329  65.1144867   9.8362808  67.3992844
  64.6418228  10.6617918  67.2927246  65.2362289   9.7503109  68.3448105
  27.4583492  70.1495285  85.5757294  27.7936630  71.0083466  85.8330688
  26.6969528  70.3436584  85.0290833  38.7095718  15.3194675  10.5793514
  39.3487816  15.4870539  11.2718563  38.1711464  14.6043377  10.9183416
   8.8209724  60.1281471  53.7342186   8.8033237  59.1748734  53.8189850
   8.7872562  60.2853622  52.7906189  24.1948128   8.8747444  75.6993637
  23.2844315   9.1624908  75.6312561  24.6136780   9.5341425  76.2525177
   1.8507084  36.8727570  35.1743736   2.7190700  36.4721985  35.2160110
   1.3090932  36.2242050  34.7246361   7.7618594  45.6143188  88.5781250
   7.3103685  45.2195969  87.8320770   7.2544303  45.3351250  89.3402252
  41.6481361  57.3413925  26.6130047  40.7854004  57.6926041  26.3926277
  41.5459480  56.3923950  26.5409641  24.7859669  19.3282909  79.0338669
  24.1745110  19.3107243  78.2976303  24.2587395  19.0684128  79.7893295
  13.1378365  56.6751328  11.3499975  13.7038631  55.9806099  11.0131216
  12.8657751  57.1611061  10.5715103  26.2927742  52.6916542  59.8918114
  26.3233719  51.7351418  59.9112930  25.5253220  52.8959045  59.3574600
   1.0339589  60.6212730  29.8390846   1.3292527  60.8533516  30.7195244
   1.5490005  59.8476982  29.6098576  64.8998795  69.4362564  61.6869965
  64.4908676  70.0399780  61.0669441  65.3300629  68.7822189  61.1361656
  12.1455793  70.7485352  49.6735725  12.7697163  71.4005737  49.3549347
  12.2333555  70.7784729  50.6262703   2.4697943  43.4852791  84.2296753
   2.8112488  44.2613945  84.6738510   2.2817874  42.8679848  84.9366684
  12.4257460  43.4761810  86.7188568  12.1763906  43.5856438  85.8012085
  12.1301250  44.2806969  87.1449890  50.2677612  41.5421257  28.7592087
  50.2151604  41.1208954  27.9012871  50.9546509  42.2014389  28.6606083
   0.4324034  45.2602615  62.5391884   1.3093425  44.9146652  62.3725395
   0.5581186  46.2061501  62.6148529  47.8412743  29.4408417  23.6241837
  46.9657822  29.6483593  23.2975616  47.7016869  29.1799622  24.5345058
  36.2122803  62.1460304  71.5415497  35.9675789  62.8197441  70.9071503
  35.9411240  61.3234749  71.1339874  71.7061615  48.3382683  12.8721819
  70.8392105  48.5287666  12.5139380  71.5302582  47.8922386  13.7006426
  86.9677658  35.9874535   7.9722748  86.3778839  36.0391655   7.2202086
  86.3888168  36.0236015   8.7336893  43.4871407  52.2732124   4.8053675
  43.9126053  52.1676712   3.9544430  43.3517723  53.2169991   4.8900471
  77.6982498  69.3785019  22.8511333  78.6415634  69.2468719  22.7559395
  77.5697708  69.5213013  23.7888603  48.7857361  54.3986740  48.2024727
  48.9685860  53.5184021  47.8739548  47.8517799  54.5269928  48.0366631
  83.5302277  71.7356110  70.2831955  83.5784531  70.9854202  69.6906433
  83.8349457  71.3961182  71.1247025  79.5106888  64.0715027  56.4639320
  79.0580521  63.3172531  56.8413696  79.0871964  64.8303833  56.8651505
  24.0123482   5.6789145  19.5279999  24.1670399   6.4824247  20.0246620
  24.6104240   5.7389102  18.7830582  37.6855927  11.7834444  46.6441650
  37.2610435  11.3105288  45.9283867  38.0381699  11.0961399  47.2094383
  29.8854847  36.0950089  76.2242584  30.0182877  36.9948769  75.9262161
  29.2573261  36.1708298  76.9425201  39.5111580  54.9637413  81.0972443
  39.8888397  55.3833618  81.8702240  38.7579346  54.4775276  81.4326248
  67.0374222  47.2363396  37.2989044  66.4342117  46.5277519  37.5231247
  67.1840057  47.1374283  36.3581810  84.3566513   3.3237181  14.9448280
  84.3074265   2.5206466  15.4633694  84.6494293   3.0334573  14.0809641
  73.7407532  27.6286755  31.0550404  73.3788605  26.7444611  30.9964657
  74.6774673  27.4949932  31.1997185  -0.0169989  13.9562941  26.8061028
   0.2666244  13.7765570  27.7024746   0.6890503  14.4838448  26.4327183
  65.0924301  66.4396591  35.6532669  64.7052002  66.9211502  36.3843269
  65.9516983  66.8427963  35.5292931  78.7229309  70.1371841  10.0970039
  78.5090408  70.0176849   9.1716919  79.0073929  71.0488815  10.1612720
  72.8133621  69.9309235  32.5783424  72.7922211  70.0891037  31.6345387
  73.7331619  70.0413895  32.8191643  58.5114479  41.3185425  63.6395378
  58.0240364  42.1417656  63.6706772  57.9891472  40.7109985  64.1632996
   8.9345465  70.1453934  20.2608948   8.9215040  69.5775070  21.0313282
   8.0458279  70.4968872  20.2073593  29.3077717  27.7287064   9.2604847
  29.2028408  28.6516724   9.4914665  28.6444473  27.5731544   8.5881491
  53.4395142  55.6132736  84.6431808  52.9147720  56.2243958  85.1603012
  53.2852516  54.7609444  85.0505753  42.4686050  61.0318184  74.2462158
  42.4368591  60.2893715  74.8495407  43.1245384  60.7832909  73.5948944
  50.9919624  32.6891594  18.3355293  50.1675720  33.1730118  18.3854885
  51.1071930  32.5079803  17.4027233  53.5732574  26.4469357   0.9675933
  53.9634705  27.2631931   1.2801429  52.6494789  26.5153160   1.2088128
  80.7470627  35.5812569  71.8497086  80.2808914  35.8038368  72.6555481
  81.5219574  36.1431160  71.8582916  34.3410950  11.4933310   7.6971788
  33.5503616  11.5226898   7.1585636  34.2245140  12.1997461   8.3324881
   0.3864947  70.6661148   9.4422321   0.0286111  70.0864258   8.7698412
   0.0341082  70.3254700  10.2644348  17.3471813  12.3790560  11.6425247
  17.3965225  12.5196733  12.5880537  17.9963760  11.6977749  11.4674988
  75.5763016  43.0282669  34.7942047  74.6440201  42.9257050  34.6029587
  75.8061676  42.2442360  35.2928963  58.7726974  22.2800179  22.8854237
  58.5306778  21.8335171  22.0740700  58.0275421  22.8495159  23.0768604
  28.4375362  37.8563309  18.8259392  28.3735752  37.2734604  18.0693665
  28.6038628  38.7204132  18.4492054  59.8078957  31.6877193  13.5344839
  59.4360352  30.8067417  13.4917011  60.6223869  31.5803032  14.0257034
  39.5755196  58.6679497  70.1999435  39.3686447  59.6023674  70.1828079
  39.6590004  58.4241753  69.2780838  63.5042343  51.1617088   6.8890829
  63.4491806  51.3824615   5.9593139  63.4574394  50.2059174   6.9115014
  38.4044342  14.0918989   6.9723382  38.5136528  14.9811087   7.3093977
  38.8451118  14.1020174   6.1226711  56.0636139  29.6056194  71.8109436
  56.7850037  29.2752075  72.3463364  55.3633461  29.7865562  72.4379349
  34.1605377   1.8972002  55.7546616  33.3623123   2.2574451  56.1410446
  34.2776146   2.3908195  54.9429550  42.5351944  58.9294128  75.7880249
  42.1901436  58.4089966  76.5135193  42.9390259  58.2877007  75.2037659
  64.9188538  27.9552860  80.7086716  64.1086960  28.1837330  80.2529449
  65.3658447  27.3521881  80.1147919   9.7384777   5.6372294  21.3566036
  10.0043993   4.8038502  20.9680214   9.5869398   5.4336314  22.2795410
   7.4411044  10.6554813  25.5077877   8.0682068  11.0345449  24.8919258
   7.5518398  11.1682682  26.3084259   0.4718483  20.3127193  11.9050350
   0.8237285  20.1289768  11.0340290  -0.2266530  20.9490032  11.7518330
   9.0473003  58.9181862  42.0829582   8.8841934  58.6131592  42.9754791
   9.8634148  59.4145317  42.1448631  62.8124619   5.2262707   8.5766087
  63.4167862   4.5430751   8.2863197  62.3445473   4.8345909   9.3140869
  82.2332764  15.3962631  58.1193199  81.4466171  14.9325323  57.8323631
  82.5473328  15.8440132  57.3337479  41.7735405  44.1230621   8.2587948
  40.9912643  44.0030785   8.7972012  41.6866989  45.0078163   7.9039750
  50.9154816  61.5639458  54.1973953  51.5301704  62.1684952  54.6132202
  50.4137421  62.1107254  53.5928116  45.4711227  64.3662491  34.5417099
  45.5493851  63.4902992  34.1637993  44.5532799  64.4322891  34.8052177
   4.1001563  35.6049690  53.9257698   4.0158739  35.9427834  53.0341377
   3.7889037  34.7015076  53.8700180  36.3903580  33.6342812  63.8742943
  37.2121658  33.1449890  63.8361435  35.7205849  32.9664383  64.0213242
  15.9983263  27.2993317  22.6709652  16.4090347  28.1206856  22.4009151
  16.7140179  26.6637211  22.6751842  38.5636368  37.7511597  64.9937286
  38.2573051  38.3258362  64.2922058  37.9263573  37.0372276  65.0139694
  62.5802956  71.2388840  34.7131195  62.7487373  70.3445129  34.4165421
  63.4221382  71.6847610  34.6196747  60.3471489  47.6805649  39.6805878
  59.9352226  47.9522285  38.8603745  61.2493401  47.4721832  39.4379845
  56.8353157  53.1184998  83.0267563  57.1486969  53.8582535  82.5063858
  57.5758934  52.5125771  83.0519562  67.3961182  12.8241405  47.4977570
  67.9337463  12.0349607  47.4315186  66.4949493  12.5043631  47.4544754
  65.3075180  40.7013817  56.3682899  65.9868393  40.3530388  56.9457054
  64.5475845  40.8215103  56.9377632  10.3957615  41.1802673  68.2816620
   9.9635506  42.0331802  68.2373276  10.0000153  40.6740494  67.5721817
  81.0539322  46.0300522  21.0630798  80.4353867  45.3269119  21.2611485
  81.3282089  45.8609276  20.1617489  42.9593315  23.3694744  22.0137596
  43.1291695  24.2768650  22.2667980  43.6246529  23.1764889  21.3532047
  40.1169853  48.6151466  15.8918028  40.5004387  48.2271309  16.6783371
  40.3383446  48.0027084  15.1902695  63.7176971  16.6935024  76.6674118
  63.0439148  16.1050053  76.3269348  63.4547882  16.8604221  77.5725327
  27.5307808  65.3767319  46.6589508  26.9323139  65.9051285  47.1870308
  27.9648266  66.0079956  46.0850677  66.5988541   0.4792510  53.0015450
  66.3547211  -0.3325995  52.5571022  67.0120239   0.1916980  53.8156929
  40.2531853  52.8304977  57.3653755  40.9754066  53.3159485  57.7640724
  39.5135460  53.4375458  57.3910294   6.3977046  13.5242090  12.2011251
   7.0329156  14.1839809  11.9228458   6.0424647  13.8649874  13.0220432
  35.5847092  25.8126431  38.8108864  35.0670471  26.2335949  39.4972229
  35.6324234  26.4654446  38.1124573  36.5027466  50.1296768  74.4810791
  36.3448753  51.0562973  74.3002930  37.4167900  50.0929680  74.7628784
  51.6421051  62.9731941  11.3989887  50.7397194  62.8729172  11.0958776
  51.6122551  63.7198257  11.9972219  23.5886421  46.8258972  76.8554077
  24.4688416  46.7597160  77.2256851  23.2086010  45.9568863  76.9843445
  50.9032478  16.2578449  70.7147675  50.1108208  16.7947083  70.7066727
  50.5878181  15.3632841  70.5863342  42.2322998   9.5312548  66.9104919
  41.4598923   9.4562864  67.4708481  42.2218857  10.4395142  66.6085205
   4.5944982  30.2928562  81.9354858   4.2760181  29.3954849  81.8378906
   5.4354930  30.2995758  81.4784164   7.4268517  10.0441780  30.0823860
   8.2266541  10.5178623  29.8539772   6.7178569  10.6361561  29.8311481
  17.2878304  41.5592537  21.7035770  16.3848705  41.4518890  22.0025272
  17.4469891  42.5016785  21.7558804  55.5496712  68.3724823  46.5854378
  56.4342842  68.6761398  46.3817749  55.6822815  67.5935898  47.1257782
   3.5016859  27.0261288  67.3209305   2.8447051  27.0963440  68.0135193
   4.0852942  27.7704315  67.4680557  45.9399872  46.3559532  43.2869453
  45.8417702  45.6179085  43.8885078  45.6976357  46.0015411  42.4314423
  79.6346893  66.3972626  53.9791374  79.9897537  65.5130539  53.8878860
  79.7400665  66.7883682  53.1118584  15.2291956  47.9692116  66.9739685
  15.3625851  48.9086304  66.8477631  14.2786760  47.8663940  67.0205917
  55.9743156  68.2387848  60.3357964  55.3264809  67.8342209  60.9127464
  55.6272240  68.1037674  59.4540215  55.0732384  56.6591377  77.0591888
  54.4835320  57.1657181  77.6176300  54.9043694  55.7475281  77.2972870
  16.3562336  53.0925026  10.1223879  17.2437077  52.7627029   9.9814844
  15.9789762  52.4961548  10.7691326  49.0743599  71.1947556  34.2527275
  48.4856224  71.2493820  35.0054779  49.2406693  70.2581558  34.1461983
  66.8488617  53.7883644  11.2097301  66.4544373  53.8392220  10.3390532
  67.7853546  53.9132919  11.0561037  16.3114796  57.8590813  10.4925365
  17.2485962  57.7250443  10.3508482  15.9102726  57.0259628  10.2451830
  79.3647842  32.2128944  31.7432137  79.2712021  33.0597191  31.3069019
  79.1802216  31.5693092  31.0591335  82.5307465  11.2160263  23.7555943
  83.0651245  10.4275379  23.8502445  83.0480804  11.9070463  24.1692257
  86.2619171  24.2040615   5.4600272  87.1004333  24.4508667   5.0698748
  85.6390076  24.2443218   4.7343602   9.1201124  36.3840942  58.7650108
   9.2061749  37.3011436  58.5045357  10.0213184  36.0804672  58.8739624
  41.3479424  46.9548225  22.1423893  40.9520340  46.1094322  21.9307117
  41.8130646  46.8022270  22.9649506  45.9676361  35.3110237  45.7558441
  45.5964317  36.1882935  45.8498383  45.2360344  34.7724266  45.4543381
  47.3415108  68.8292694  85.2766342  47.5937424  68.4621048  86.1238632
  47.2161751  69.7626495  85.4478455  42.1141930  43.3921051  42.3967133
  41.5378075  43.1711655  43.1282883  41.5902901  43.9742508  41.8463821
  24.7050743  57.4600182  14.9792385  23.9317684  57.5281944  14.4192533
  25.4201412  57.8023720  14.4428577  27.9948387  52.5662613  51.5513611
  27.9806957  51.6407509  51.7952118  27.2060814  52.6867104  51.0226021
  84.9281540   6.2237778  79.4053345  84.9749146   5.4138722  79.9133682
  85.3347397   6.8830771  79.9676895  56.2769470  62.5138397  77.8961868
  56.9696579  62.0787697  77.3990936  56.1707039  61.9755096  78.6804962
  64.3838348   1.3036141   7.2580619  64.8423767   2.1055350   7.5088453
  64.0717697   1.4740868   6.3693628  43.0138931  50.5011902  81.8208923
  42.2115898  50.9227180  82.1288834  43.2047462  49.8367958  82.4830017
  63.9161377  15.2742233  23.2431412  64.1976395  14.3604488  23.1983528
  63.4175606  15.3315725  24.0582256  19.5475311  40.8604164  79.3843460
  18.9826241  41.3715286  78.8048019  20.3305626  41.4001846  79.4927139
  77.3243637  49.0870018  34.1246262  76.4869308  49.4366951  33.8202286
  77.1189499  48.6661644  34.9594498  55.0200920  67.6524734  40.2812881
  55.8230286  67.1637726  40.1004601  54.6552887  67.8420792  39.4168816
  86.1813354  14.3824339  61.2425804  86.5022888  15.2455492  60.9813271
  85.4720001  14.1945448  60.6279488  32.0445251  65.2556000  23.3543701
  31.6220036  65.8790359  23.9451561  32.3470116  65.7892151  22.6195316
  77.7642746  69.4930801   7.5216818  77.8412552  69.6018372   6.5738006
  77.7904129  68.5458527   7.6569939   0.5287909  48.6985016  41.6388855
   0.7359360  48.4853516  42.5487709  -0.1597887  48.0785904  41.3984642
  -0.0658099  52.6862450  73.2831116   0.4454817  53.1380768  72.6118011
   0.1891824  51.7673531  73.2003708  11.4760571  69.2877121   4.3381367
  10.6974478  68.8574524   4.6915140  11.6667938  69.9879684   4.9622312
  86.6613312  54.3004532  66.7544861  86.1383362  54.2022324  67.5501404
  86.7111282  53.4167747  66.3899918  25.5497589  65.2267456  36.6863327
  24.9572620  65.3453674  35.9439659  25.9016285  64.3437805  36.5732384
  52.9878349  67.8896790  31.9959335  52.8156052  68.8073654  32.2066917
  52.4064369  67.3975983  32.5756493  81.7752609   3.9315810  24.9345169
  81.3008347   4.1655307  25.7322769  81.3515167   3.1289217  24.6305237
  76.9571838  40.7340851  85.5251770  77.1576614  40.9141617  86.4436646
  76.5312119  41.5320549  85.2120972  23.3448715  68.8631897  26.2336559
  23.6466122  69.7317734  26.4996433  23.3342495  68.8958664  25.2770729
  61.7611580  51.9504395  56.7437019  61.6826706  52.8133926  56.3370285
  60.9694481  51.4853363  56.4733086  56.6647339  12.1264162  49.2236176
  55.9338036  12.2229242  49.8340797  57.1205215  12.9673090  49.2608643
   7.3791156  30.3655586  14.5973167   6.7562246  30.5914307  13.9065056
   8.0963297  29.9273949  14.1392241  47.2483368  10.1560726  28.9468307
  46.4642754   9.6579523  29.1778164  47.0226936  11.0644436  29.1472778
   9.5699444  29.5829620  84.0959702   9.8448296  30.0502052  84.8848648
   9.8305941  28.6752701  84.2521439  34.2959366  36.4756966   5.9939299
  34.8180084  35.9139671   6.5667543  33.4220505  36.0853424   6.0073652
  66.4988174  55.7333717  21.3651314  66.6384583  56.6083870  21.7271843
  67.1129074  55.6762543  20.6331043  10.4948139  18.2095833  81.3408585
  10.3352442  19.0685291  80.9497299   9.9851217  17.6032658  80.8034363
  32.4966469  51.4159164  89.1297607  31.5481873  51.4140472  89.0007248
  32.7912064  50.5865746  88.7533798  69.3864441  26.9681587   9.6458006
  68.5058289  27.2979488   9.4669657  69.9695663  27.6120739   9.2438345
  46.3078232   3.2459271  37.2885590  45.4916306   3.5220680  36.8716545
  46.1320496   3.3130937  38.2270813  13.3413687  37.6314774  27.8019333
  13.7125311  37.0939369  27.1022778  13.9047756  37.4637489  28.5573616
   9.8689241  38.4614182  33.2523766  10.0462160  39.3907166  33.1067505
  10.7352724  38.0597572  33.3182602  82.9547043  45.0512466  43.7407761
  83.7745209  45.4669724  43.4737511  82.3242569  45.3117104  43.0692711
  17.5801983  44.5361977  44.8820877  16.9215488  45.0031204  45.3962860
  17.4160748  44.8080864  43.9791107  53.0103989  68.0353546  72.2411118
  53.6789207  67.3903275  72.4718475  53.1152573  68.1621475  71.2981567
  49.5208054  18.1896801   8.6898193  49.2096405  19.0169544   8.3223581
  50.2937927  17.9719334   8.1689472  34.2722473  46.1344452  53.8502197
  34.5545158  45.8187103  52.9918098  33.4159737  46.5310669  53.6898422
  64.9784164  40.9237671  73.6313858  65.5405579  40.1861420  73.8683319
  65.4199905  41.3318481  72.8865891  53.0827026  19.3963852  27.5787277
  53.4842377  18.8562431  28.2593498  52.3391228  19.8147907  28.0126114
  44.8758965  68.2499008  32.6336517  45.6081429  68.1668701  32.0227890
  44.2399063  67.5998840  32.3349495  61.8797112  30.6647568  84.4438782
  61.6389771  30.5351944  83.5265503  62.2013741  29.8098755  84.7301254
  78.8983002  53.5575638   7.9854746  78.0151443  53.7828026   7.6930199
  78.7634811  53.0509682   8.7863607  10.5190430  53.5658264  23.7429199
  10.8382950  52.6779366  23.5817814   9.9496803  53.7546844  22.9970055
  82.5563126  42.9502754  54.4925423  82.5989456  42.1328659  53.9963036
  83.4712677  43.1798744  54.6549416  15.2740707  52.3478699  28.6173763
  15.1994753  52.0053253  27.7266846  14.4915123  52.8868065  28.7330475
   7.1534619  17.3627052  86.4255829   6.7957664  18.2494755  86.3817215
   7.8737717  17.4257450  87.0528107  48.8096390  18.9837227  51.5111122
  47.9893112  19.4500580  51.6718102  49.3640556  19.6220303  51.0623169
  59.7700157  26.6385708   9.6666670  60.0073586  27.4132957  10.1762762
  60.3912430  25.9670353   9.9483557  62.9497452  53.1695824  35.3636665
  62.5858994  52.6355324  36.0698128  62.4549446  52.9088516  34.5868645
  12.8350840  20.5478897  85.6039581  13.5068798  20.8326263  86.2235107
  12.8070517  19.5961094  85.7017365  32.6274300  18.0833378  87.0801010
  33.1203041  18.8982410  87.1762238  31.7131615  18.3410587  87.1980896
  72.8260498  47.1793594  44.7426414  72.4140472  46.3429604  44.9592438
  72.8088455  47.2142601  43.7862320   9.7180643  56.5500832  20.1819286
  10.0626326  56.6644402  19.2962494   9.2584143  57.3688927  20.3676796
  80.8467712  15.1191730   9.2988586  81.1514206  14.2976561   9.6842537
  81.2185364  15.1223135   8.4168072  48.8776627  48.9603767  82.9293976
  48.7858086  48.9984779  81.9773788  48.1790962  49.5249977  83.2602081
  53.6623421  30.0792484  59.1538696  53.7621422  30.1568851  60.1026802
  54.0304031  29.2209873  58.9437523   4.4172425  10.7344904  85.0233841
   4.6242838  10.1820173  85.7771378   4.4563794  10.1409607  84.2734375
  57.6954765  15.4728565  38.7078362  58.1691971  14.7231779  38.3475571
  56.8019485  15.1535158  38.8337936  60.0598068  36.9593620  88.3198395
  59.2071915  37.3780746  88.4379883  59.9177933  36.0492249  88.5800476
  23.5085258  55.4084549  74.7810974  24.2839622  55.9692612  74.8017197
  22.8105984  55.9766731  74.4551239  40.0111122  31.3675404   5.0512948
  40.8123093  31.6667957   5.4811316  39.3989334  32.0965347   5.1514697
  57.0004654  66.4465942  21.6941643  56.6443596  65.7260971  22.2140751
  57.7820282  66.7235641  22.1723614  73.6910858  17.2927494  19.7424793
  73.3495483  16.4058571  19.8565254  74.4419556  17.3382053  20.3343849
  52.7568398  53.5656357  72.5149155  53.6709633  53.3855057  72.7343597
  52.7704849  53.7679825  71.5794449  86.2214813  18.3879242  21.4874649
  86.6586151  17.6299877  21.0992908  86.5584488  18.4263229  22.3825684
  73.2145157  48.0915985  65.5946579  72.5822754  48.8102112  65.6049423
  73.2637177  47.8290138  64.6754913  50.1428261   6.9395299  49.4749489
  49.6594353   6.7431030  48.6724625  50.8685837   7.4936666  49.1878242
   5.5988488  37.5141258  56.0298271   5.1721010  38.3670006  56.1118279
   5.1054506  37.0643921  55.3438759  64.4524841  12.0303984  76.4674377
  64.9509888  12.3628941  77.2138824  65.0052261  12.2162428  75.7083817
  36.3543854  68.5422745  38.3945694  37.1545219  68.8444977  38.8243065
  35.8749504  68.0776596  39.0805054  50.4673157  64.1663818  30.0562973
  49.6348152  64.6001740  30.2433701  50.7795372  64.5833740  29.2532616
   6.4710841  49.0775566  58.4404373   6.3200145  48.1506119  58.2555580
   7.1265688  49.3464355  57.7967949  78.0092545  61.0098648  36.9573097
  77.6721420  60.9084892  36.0671921  77.2514877  61.2916718  37.4697609
  42.6503487  21.7208233  73.2658157  43.5778465  21.9539490  73.2254028
  42.3698997  21.6946068  72.3509903  70.2267227  69.6766052  69.6035461
  69.8836746  69.6037445  68.7129059  69.4488144  69.6685486  70.1612396
  24.1630096  48.5300674  14.5111456  24.3884201  47.9873161  13.7556047
  23.7211285  49.2916412  14.1356688   8.5542593  10.8295918  18.4584579
   8.8862896  10.2387924  19.1344357   7.8696699  10.3272982  18.0165634
  54.1834831   7.4074960  81.4343948  53.5620918   7.5424809  80.7189331
  54.1332436   6.4701290  81.6216125   8.8468246  16.3465118  26.9035568
   8.1665506  15.8713760  27.3807430   8.4717522  17.2140694  26.7522411
  76.0156479  47.4704704  59.8102684  76.7613449  47.6906471  59.2519760
  76.3373489  47.6013985  60.7022324  67.1817932  43.6885033  86.4003220
  66.8963089  43.5580978  85.4960403  66.4223557  43.4434433  86.9289398
  46.0937386  46.0073776  50.1516533  46.0838737  46.8484421  49.6947670
  46.2520027  45.3622551  49.4624481  19.6649609   2.6817355   3.8406177
  19.5154247   3.2875702   4.5664515  18.9193802   2.8193226   3.2563138
  44.8163300  13.0063047  83.6632538  44.0572548  13.4831686  83.9988708
  44.8461189  13.2279787  82.7325592  73.2695312  18.3773117  66.2428436
  73.3168335  17.5518131  66.7250748  73.5897522  18.1617088  65.3669434
  66.6559067  27.6173840  56.7119217  67.1486282  28.0643711  57.4001541
  67.0624008  26.7530613  56.6491432  34.6781464  34.4211845  19.7350388
  33.8841782  34.0534477  20.1231308  35.2284584  34.6476860  20.4847622
  77.3717880  37.2806511  27.1529503  77.0937500  38.0416985  27.6625919
  77.4187698  37.6000175  26.2518234  63.7245216  43.5477600  26.4650135
  62.9728737  42.9594688  26.5369282  63.4153976  44.2647438  25.9112930
  48.3098183  58.0739937  19.2071304  47.5624619  58.0344009  19.8038902
  48.0403938  57.5526123  18.4509525  53.8805580  49.1530228  53.6601791
  53.4241371  48.3179321  53.7628136  54.4140816  49.0392876  52.8736382
  68.9865799  53.4660988  36.0562897  68.5992126  53.6160736  36.9186630
  68.2566147  53.1658630  35.5147705  36.9093933   0.2793969  10.7535133
  37.2740707   0.1944140  11.6344328  36.0767517  -0.1911498  10.7925606
  59.7626381   6.1876268  57.1905289  58.8237877   6.3741474  57.1917000
  59.8243523   5.2708149  56.9224281  43.3191414  19.6247196  59.5207977
  43.3209648  20.4366570  59.0138588  44.2318192  19.5038891  59.7828064
  39.3570557  28.4835930  17.0075245  38.8056221  27.8583183  17.4778233
  38.7714844  28.8826828  16.3640480  39.6823387  47.6724930  41.7799644
  40.1116982  48.1973381  41.1043739  39.0290756  48.2596970  42.1603203
  24.5747261  45.9976120  64.7962265  24.0648270  45.3422203  64.3200989
  24.0525703  46.1873970  65.5756912  46.8242111  25.2076855  37.2146072
  46.3292885  25.7765160  37.8042831  47.7042274  25.5840206  37.2013893
  62.0044365  57.4623642  24.0552559  62.6510429  56.9076958  24.4916935
  62.5114021  58.2003822  23.7168064  73.1986847   8.4671993  15.0295362
  73.7565308   7.7024331  14.8874969  73.5303574   8.8588381  15.8375263
   4.4800305  26.9080505  13.3465405   4.0209947  26.7059784  14.1618233
   4.9475279  27.7228127  13.5304985  31.0475826  34.1203079  80.4552155
  30.7018375  33.2655525  80.1981506  30.3456993  34.5173340  80.9709320
   2.9171603  43.3151970  35.7704811   2.4136550  43.9654999  35.2807693
   2.5888507  42.4724503  35.4570808   5.9348111  17.5335789  81.4364777
   6.4092274  17.0685349  82.1256027   5.3702283  18.1471825  81.9065475
  35.2149696  10.2249031  69.5623932  34.8076401   9.3705902  69.4193420
  35.9882355  10.2190371  68.9982529  63.6974907  16.8966942  44.1386719
  63.2947693  17.6816158  44.5100822  64.3805923  17.2303123  43.5570374
  54.9849091  27.5368958  70.4672699  55.2048988  26.8649235  71.1124725
  55.2885056  28.3550644  70.8605347  86.2471619  31.9228725  71.0454483
  86.5646057  31.7557640  70.1580200  85.9404221  32.8293228  71.0233841
  77.5417328  38.4956169  33.0054893  78.3440552  38.0779877  32.6922874
  77.8463135  39.2310791  33.5370522  17.0588493  17.4423103   9.5954094
  17.5018578  17.3557034  10.4394922  16.2616177  17.9339848   9.7926674
  11.3063440  35.6662025  20.2032223  11.2517891  35.0940361  19.4377937
  11.3804674  35.0666046  20.9456654  16.5400391  51.9021721  67.3788300
  17.1666050  52.3347931  66.7987595  17.0181198  51.7795067  68.1989670
  50.3367538  54.2805367  53.8141060  51.0338783  53.6611252  53.5982933
  50.3509598  54.9160080  53.0984192  38.3777847  40.1256371  26.8417759
  38.5083542  40.4758644  25.9605694  37.5291328  39.6847801  26.8009834
  12.7731047  30.2361965   3.5568848  13.3128500  29.9895153   4.3079209
  13.1015863  31.0973091   3.2983940  28.7750645  68.3601532  41.4158134
  28.6067619  67.6479111  42.0327530  29.3047333  67.9596939  40.7263794
  81.6856308  11.7129774  58.6476021  81.5435791  12.4049053  59.2935791
  81.4040222  12.0984087  57.8179207  52.6009102  48.7762184  19.5687847
  52.8142281  47.9317093  19.1718807  52.2495995  49.2980309  18.8473110
  66.0055771  42.6485748  37.2778473  65.4042587  42.1338463  36.7396011
  66.8621063  42.2475090  37.1304321  40.4727783  39.6286774   8.0495253
  39.7520103  39.6557579   7.4202471  41.2608185  39.7292290   7.5155635
   9.7525196   5.7818370  10.6652966   9.2866268   6.2673421   9.9845171
  10.5577116   5.4863853  10.2403193  69.0172958  44.5599289  81.5351944
  69.2311249  44.1703568  82.3829803  68.0668259  44.6713142  81.5556870
  80.5659027  69.7606125  59.8427010  79.6106186  69.8153458  59.8170967
  80.8255997  70.4100876  60.4961319  68.8196793  24.8696098  78.5955429
  68.5902100  25.1743965  77.7176590  68.4162445  24.0041046  78.6616592
  29.5912247  48.9625435  22.2454472  28.8855438  49.5564995  22.5012970
  29.2266273  48.0871696  22.3759289  51.3443756  62.8741493  38.7704773
  51.4863281  61.9658546  39.0370941  50.5050774  62.8603516  38.3104515
  33.0445366  68.0898666  88.5183640  32.0889435  68.0948029  88.5736237
  33.2480278  67.3430710  87.9552307   4.6857257  43.6012840  47.5749435
   4.8171883  44.5349388  47.4099121   4.1713476  43.2960625  46.8276215
  55.0353241  44.4454575  32.7287483  55.3775902  45.2279739  33.1608963
  54.2079086  44.7291031  32.3399506  55.8005066  16.3609009  54.4507065
  56.4909019  15.9365997  54.9601707  55.0116806  16.2565594  54.9827766
  26.8602047  62.6443558  72.0432510  27.8137074  62.7123337  71.9938049
  26.6990681  61.7494087  72.3421402  37.5782394  35.8105087  87.0989609
  37.3486900  35.4813461  86.2299423  37.5955696  35.0305786  87.6536179
  77.3728409  15.7805405  82.9755707  77.2249680  15.4989071  83.8783722
  78.2774048  15.5277491  82.7909317   7.2756619  44.0982513  48.7800980
   7.2490892  45.0256691  48.5446815   6.4434357  43.7468681  48.4636154
  24.3303318  62.2107887  48.0470009  24.2411289  62.8892822  48.7162743
  25.1451263  61.7604599  48.2695885  69.4123306  62.3359756  31.8924541
  69.2600327  62.0102844  32.7795601  68.5383530  62.5368233  31.5577106
   5.6485295  65.8014526  66.5472260   5.8410034  66.6227036  66.0947495
   4.7955928  65.5337067  66.2051163  31.9664268  56.4267845  16.5355854
  32.6391983  56.4980888  15.8584385  31.2789536  57.0307121  16.2547150
  54.8122597  68.1668777  57.7408562  55.0808907  68.4332504  56.8615837
  54.3388138  67.3456192  57.6081543  61.3539810  61.4162369   5.6105523
  61.0200996  62.1148911   5.0478468  60.5797195  60.9016380   5.8384590
  34.0896378  64.1914139  63.0502167  34.0324326  64.4146500  62.1211700
  35.0290375  64.1525116  63.2297974  74.6825104  34.0444870  33.7187653
  74.7771072  34.1093979  32.7684631  75.2054520  33.2798691  33.9598465
  60.9942513  45.2946053  55.2129974  61.7539177  44.7558403  54.9919357
  60.3054543  44.9916763  54.6213722  55.6505280  68.8004074  20.5092659
  55.8883362  68.0327301  21.0292263  56.3628998  69.4217529  20.6599007
  69.9015961  29.0931320  78.5973816  70.1332855  28.4608421  79.2776489
  70.6837387  29.1520386  78.0487289  41.9661102  58.0776100  86.4266891
  42.7822456  58.5681229  86.3289413  42.1342583  57.2431984  85.9888382
  15.4153681  42.4809341  27.2215252  15.0143881  42.8895073  27.9886723
  15.7084398  41.6242676  27.5321159  69.3869934  13.8940153  59.8938484
  69.7846375  14.5114021  59.2798920  69.7280807  13.0397272  59.6291199
   2.1387978  38.0292320  62.0852089   1.9994507  38.9622955  61.9233208
   2.4521570  37.6851959  61.2487411  25.5431118  49.8837662  79.4260178
  24.6720524  50.2732620  79.3499756  26.0616226  50.3231506  78.7519836
  51.0559616  46.4033127  14.6602488  51.0269165  47.3132439  14.9558992
  51.9054832  46.0807343  14.9610615  31.7994041  34.4456024  17.5153465
  31.8361053  34.0858803  18.4016228  31.1090012  33.9440804  17.0816994
   9.3412371  52.6386566  82.7530441   8.6016378  52.4299545  83.3237152
   9.5322361  53.5587234  82.9353180  35.5878754  52.9296570  65.9456177
  35.6534691  53.4680290  66.7343369  34.7487144  52.4776001  66.0333023
  26.8171329  43.0433998  65.7015839  26.4498291  43.2164116  66.5684128
  27.7413921  43.2791100  65.7817001  41.4556732  67.1947403   3.5173507
  42.0059319  67.6840973   4.1288891  41.0456009  67.8671646   2.9733665
  35.2257805  41.8021126   7.2259259  35.4581795  41.8732986   6.3000994
  36.0367813  42.0038338   7.6926389  79.8404922   3.4060473  77.6188431
  80.2746887   4.2204309  77.3649063  79.5786972   3.0056028  76.7897797
  26.4116001  37.5791893   1.9785218  25.6783333  36.9639473   1.9837949
  26.4285316  37.9392433   2.8652616  10.3777628  50.5480766  13.3886538
  10.2435923  50.6231079  12.4438782   9.7530832  49.8782806  13.6668339
  14.5525122   4.7937284  21.0409164  13.9596672   4.0460610  21.1168118
  15.1820927   4.6733127  21.7518044  57.3131981  70.8147659  88.8306427
  57.5357513  71.5159531  88.2182312  57.5934372  71.1445465  89.6844254
  34.6939392  46.2332344  62.8460121  33.8064690  46.0942307  63.1766281
  34.7550774  47.1793823  62.7144852  28.6728115  49.0559387  89.2915649
  27.7927132  49.0090141  89.6650009  28.5599537  48.7917900  88.3784790
  29.7235737  46.9357491  25.1139565  29.6342487  46.6140251  26.0110321
  28.9436646  47.4725723  24.9732571  57.2953758  20.0942726  59.7595444
  58.1500778  20.0191402  59.3351974  56.6857605  19.6871681  59.1440239
  86.1718903   6.2832747  82.2766342  86.9132690   6.7225647  82.6933060
  85.5307159   6.9793987  82.1333466  79.3160400  14.0034361  27.4752388
  80.0314255  13.5479269  27.0314350  79.5236053  14.9322596  27.3730793
  40.5195961  51.4776955  47.4983063  39.6319160  51.4075470  47.1471176
  40.5404510  50.8529282  48.2231979  44.8056335  40.3560448  85.7794495
  44.9560242  40.2886543  84.8365479  43.8545647  40.3045387  85.8745804
  43.4058113  48.1410141   5.2259326  44.2743454  48.4158325   4.9320664
  43.5546989  47.3015251   5.6610456  12.8966703  67.5985107  72.2582779
  12.5184660  67.1100388  71.5271225  13.7066526  67.1320038  72.4645233
  22.1665306  71.2705688  61.2676010  21.6699181  70.6607208  61.8132172
  22.7825813  70.7162704  60.7885780  51.4424553  32.4046974  51.9546204
  50.7236404  32.3102150  52.5796089  51.1892891  31.8544331  51.2134399
  31.4163609  49.9655457  47.3357849  32.2948990  49.6923447  47.0716553
  31.3659897  50.8873291  47.0827827  75.5649643  51.9891434  79.5312195
  75.0282288  52.1380157  80.3096695  74.9539566  51.6404686  78.8821182
  55.9918213  59.9400063  63.1660919  56.2731018  59.4560165  63.9425354
  55.2479630  59.4406929  62.8290558  53.2177200  18.8586197   4.2016635
  52.9317551  19.2170715   3.3614445  53.5773735  17.9983902   3.9851260
  81.0465698  26.9021912   0.6176717  81.2926025  27.7668571   0.2889570
  80.1231537  26.8105373   0.3828724  26.6345024  57.8335495  12.8245249
  27.1505680  58.4214935  12.2729511  25.7791367  57.7931404  12.3967981
  84.0702591  51.2525330  11.8432236  83.2503510  50.8146744  12.0718155
  84.2873764  51.7732697  12.6164818  36.6207161   2.3187010  67.6381912
  37.1635056   2.9180682  68.1504135  35.7218781   2.5505290  67.8718109
  15.7008352  54.7218628  88.8276138  15.2183933  55.3280640  89.3897552
  15.2355328  54.7486572  87.9915466  29.2550335  53.7777939  42.7228889
  28.4607277  54.2796288  42.9058380  28.9376316  52.9113998  42.4682388
  39.1578331   0.3100953  16.4644527  39.3203392   1.2114803  16.1863728
  39.4963417   0.2706732  17.3589287  63.4163094  52.2187805   4.1759419
  62.6740456  51.7619591   3.7802246  63.5457306  52.9893265   3.6230063
  48.2349739   7.3751993   5.4715843  47.5174408   7.7254419   5.9995165
  48.0194206   6.4494653   5.3585119  50.4468422  60.1816521  18.8581505
  50.9005394  59.8864899  19.6476231  49.6942749  59.5952034  18.7809887
  56.8475227   1.5154976  77.4755020  55.9748383   1.9084594  77.4908142
  57.3982353   2.1365192  77.9522400  65.9865952  62.5930977  77.8581848
  66.6746521  62.4885864  77.2010040  65.6533127  63.4792557  77.7171707
   0.8208700  59.9754181  73.0323715   1.0068727  59.1441841  72.5956955
   1.6813333  60.3133354  73.2806549   4.4652386  39.6051903  65.1947098
   5.3759928  39.5221519  65.4773102   4.3391991  38.8842278  64.5778122
  86.0888290  32.0601196   6.7521982  86.3230972  32.4847679   7.5774398
  85.1320190  32.0338821   6.7595053  48.4480553  10.7976341  32.2798576
  47.5320206  11.0611982  32.1924210  48.4399757  10.1259241  32.9617462
  46.1978340  68.0900879  58.5088806  46.2293053  68.8630142  59.0726433
  46.8240395  68.2779312  57.8097305   8.5322189  34.4680519  89.1726761
   9.3640060  34.8351784  88.8733749   8.2180901  33.9507332  88.4310989
  10.6330023  65.1851578  31.6361828  11.1748886  65.1449203  30.8481655
  10.6163149  66.1136551  31.8682289  13.1221514  46.3476906  31.4055805
  13.2207031  47.1903992  31.8487034  12.1920109  46.1389198  31.4920979
  64.0130234  45.2780571  10.2046680  64.5799561  46.0307579  10.0365610
  64.5080948  44.7382011  10.8208570  68.1967697  40.0561829   2.2923892
  67.3473663  39.9419785   2.7186553  68.7950439  39.5076447   2.7997420
   9.3103428  61.4675140  26.6588573   8.7627754  62.1029205  27.1200104
   9.3329821  60.7058144  27.2381077  24.4080658   3.9897635  64.5121460
  24.5087471   3.0472984  64.6457672  25.1061115   4.2206936  63.8992500
  41.2646523  58.1470490  78.7628098  41.2736435  59.1036682  78.7307358
  41.4349480  57.9365730  79.6809158  16.1800289   6.6533966  87.9231949
  15.8237982   6.7496037  88.8064117  17.0634441   6.3101482  88.0573196
  79.9332733  23.1586857   5.6333241  80.8285141  23.4571400   5.4730082
  79.3838348  23.7867260   5.1643739  14.9684200  56.9445992  13.6331758
  14.3588037  56.3322487  14.0450306  14.7000160  56.9684448  12.7146864
  36.1970673  68.8107071  56.1999168  36.7947083  69.3266525  56.7410812
  35.5063782  69.4256134  55.9527969   5.1358142  21.3249912  65.2315063
   5.6988192  21.5519028  65.9716187   4.2904997  21.1158237  65.6288986
  47.8391151   2.0295687  46.9688187  48.2815094   2.6495492  46.3890381
  47.8463821   2.4559782  47.8257637  31.1540527   7.9446607  79.0575943
  30.2161674   7.7751708  79.1463394  31.3141880   8.7043514  79.6174622
  59.3330460  71.1626968  79.7143250  58.4291649  70.8684845  79.6017838
  59.8529587  70.3600082  79.6742249  44.8139915  36.0295639  76.9043884
  45.3153572  35.2554283  76.6483002  43.9914513  35.9529533  76.4208679
  77.7529755  64.5494843  45.7543488  78.6061325  64.6721954  45.3380585
  77.2444763  65.3157349  45.4888191  70.5833359  37.1404457  51.0004578
  71.5155182  37.2733078  50.8283424  70.2648087  36.6599159  50.2363510
  39.5850945  21.3030758  62.9242134  40.1060982  21.2850895  62.1214294
  39.5264320  22.2311859  63.1509323  56.9830551  54.1955147  46.5691643
  57.4813232  54.8623466  46.0966263  57.5917320  53.8651123  47.2299042
  82.9173889  11.2266235  42.3032684  82.2810059  11.5785875  42.9256592
  82.3907776  10.7284384  41.6781883  31.2425594  70.1262589  10.4477291
  31.4003830  70.3108978   9.5218601  31.9654922  69.5538025  10.7044163
  50.0199814  68.3685913  74.8483505  50.7755203  67.7811050  74.8326187
  49.8848152  68.6095428  73.9318848  56.7777748  39.8577995  72.2051086
  55.8286476  39.9389000  72.1112289  57.1008644  39.7736435  71.3080215
  85.9789276  10.1537066  15.7066145  86.7197037  10.7596941  15.7227812
  85.5620575  10.2621717  16.5614166  68.5045853  27.8918438  30.2064304
  68.5996704  28.8411770  30.2836037  67.5643005  27.7371788  30.2968597
  61.5438080  34.5715485  52.3534737  62.1989212  34.4796257  51.6616592
  61.7627640  35.3988380  52.7822838  85.1857986  50.3311157  50.7238770
  84.9961395  50.1010780  49.8142929  85.2774963  49.4890862  51.1697617
   1.3874942  47.9830551  66.8561096   0.5704113  47.7906265  66.3961334
   1.3596926  48.9275932  67.0087738  82.4253235   0.6915110  64.5977707
  82.1469498   1.4341820  64.0618820  81.8782806   0.7433110  65.3815460
  47.1166573  25.1332417  15.5768261  47.8371773  25.5895081  15.1421976
  47.2510071  25.3062229  16.5086308  22.3179684  55.5448341  36.6141739
  22.1244125  54.6083984  36.5710297  21.6703262  55.9500885  36.0374947
  64.3509979  11.5955925  60.0071144  63.4746590  11.9554338  60.1441383
  64.6611557  11.3789997  60.8863869  82.5787201  18.7440224  15.7241488
  82.1853256  19.6118374  15.6326427  83.5170288  18.9139652  15.8073721
  30.6387310  25.9052773   6.8398757  30.8612347  25.7931309   5.9156747
  29.9185162  26.5357685   6.8380399  40.4693527  49.2894249  30.2267685
  41.1738739  49.6859055  30.7392979  40.0451508  50.0285034  29.7908287
  36.9818039  58.4926834  65.1517410  37.1402512  57.8281174  64.4813080
  37.0980568  59.3259315  64.6952209  24.1953564  25.7019100   0.2982110
  23.8657646  25.7818336  -0.5968940  24.2530174  26.6038036   0.6136368
  83.2227478  21.3590469  65.1002426  84.1512527  21.5700512  65.0023575
  82.8313293  22.1583538  65.4525681  58.7215271  18.0003624  83.0819168
  58.4160919  18.2319241  83.9590302  59.3799095  18.6635571  82.8747177
  60.1022072  23.8303814  12.4035778  60.7343521  23.2929344  12.8808346
  60.2392235  24.7162399  12.7393045  86.0743484  23.3587837   9.7816401
  85.4526062  24.0824471   9.7043095  86.9158249  23.7378006   9.5276709
  23.3132782  58.4757042  63.5705833  22.7314892  57.9928741  64.1576309
  24.0576363  57.8892784  63.4354248   6.9058208  49.6951485  87.2381134
   6.6822066  50.4300194  87.8092499   6.3479066  49.8111420  86.4690170
  11.6832609  18.7803478  11.8260241  11.7796659  18.3185368  10.9931555
  11.1512203  19.5474033  11.6143875  38.1237755   8.3899908  17.9206963
  38.2095680   8.8821440  18.7371864  38.4016380   7.5021214  18.1458893
  37.3180008  41.5113373  34.2228737  37.7984505  40.8820839  34.7608719
  37.9057999  41.6987610  33.4910278   8.9836607  67.0249252  73.3519669
   8.1232414  67.4438477  73.3722610   9.5300283  67.6244507  72.8437576
  42.1811333  68.2317429  20.8224716  41.6140442  68.0558167  21.5732670
  42.4920502  69.1262894  20.9615650  79.3315430  53.3582001  59.2987137
  79.5523529  53.3597069  60.2300949  78.6800995  52.6627464  59.2081261
  36.9797974  57.2188950  15.1260777  37.0752563  56.2877693  14.9257755
  36.7519455  57.6219711  14.2883158  16.2366467  31.9952545  73.9778671
  15.8496704  31.5745144  73.2100983  15.5118685  32.4749260  74.3789215
  80.4504700   0.9453086  78.7631073  79.8872375   0.4335099  78.1825333
  80.2140350   1.8555743  78.5849304  68.0906143  53.8293266  59.8122787
  68.7925644  53.7928162  59.1625443  68.2921753  53.1201439  60.4227448
  86.1251068  60.6489334  13.0620651  86.6417389  60.0601082  12.5119696
  86.6044617  60.6856041  13.8897753  30.3679047  30.9256573  11.3847322
  29.9858952  30.7796459  10.5192947  31.1266689  30.3428154  11.4130497
  21.7425556   9.7251053   1.9183767  21.6821861   9.4636488   2.8371954
  21.7211342   8.9004898   1.4328024   8.8033390  61.5283737  74.6157608
   9.7010641  61.3089600  74.8651199   8.7549696  62.4799156  74.7077713
   1.4794427  70.5405426   6.3473406   1.2194735  71.2563019   6.9272861
   2.0439739  69.9875946   6.8875179  47.5876007  25.7163925  66.9652939
  46.8920135  25.7046585  67.6227570  48.3882179  25.5432796  67.4605484
  52.1706810  42.3108253  84.3096237  52.6981239  42.7472572  83.6406174
  51.5340042  41.7955933  83.8142319  17.7849007   1.3833702  75.9582214
  17.4730988   2.2546256  76.2030182  18.2753811   1.0810039  76.7225800
  60.0853920  11.4957914  78.9634399  60.7520523  10.8348227  79.1502991
  59.3130875  11.1999340  79.4453583  85.8827667  34.3559494  24.1177711
  86.4262924  33.6798515  24.5223675  86.4322281  34.7220345  23.4247322
  74.3006134  56.6971893   4.8561053  74.5691605  57.4605751   5.3673372
  73.5681229  56.3254433   5.3475227  33.8409271   8.9174728  87.4544525
  33.5115814   8.0905647  87.8065720  34.4306908   8.6583462  86.7464523
  60.1711121  26.2551060  81.9088058  60.6280441  25.7900581  82.6096420
  60.7594833  26.1923122  81.1564026  62.8464890  23.0902061  46.1792946
  63.1077232  23.0787792  47.1000862  61.8897057  23.1071606  46.2019653
  70.0106125  24.4064007   9.5685186  69.1150665  24.0685844   9.5578327
  69.9103470  25.3460121   9.7211962  80.0654221  40.3216629  32.8086166
  80.9951096  40.1717339  32.6370583  79.7668228  40.8479156  32.0669098
  10.4093122  19.1403713   8.8940620  10.7545595  18.2487011   8.8497992
   9.9960060  19.2797508   8.0420151  49.0540009   9.3678026  88.6357040
  48.6805191   9.3957834  87.7548218  48.3160744   9.5582056  89.2148819
  15.3488951  60.2983398  82.1908798  14.9760351  61.0221176  82.6942215
  15.5943460  60.6907158  81.3530045   7.7462420  45.5537415   7.5337987
   8.3626003  45.0924225   8.1025848   7.4713588  44.8959351   6.8950806
  66.9153595  43.2600441  60.1027374  66.4044418  43.5068665  59.3318443
  67.5046387  42.5736961  59.7898331  80.8737411  63.5020599  31.1876144
  79.9709702  63.5762520  31.4970245  81.0997696  64.3847885  30.8944664
  46.6678009  12.5969257  18.1147060  46.9753914  13.2940311  18.6940727
  47.4011955  11.9836216  18.0675735  70.4959793  18.8112183  57.1919403
  70.8090515  19.1213856  58.0416527  70.9533081  19.3587685  56.5537605
  68.1069260   2.4434397  31.4835701  67.9759674   3.3908057  31.5233250
  68.9923248   2.3384447  31.1353359  14.0772457  44.7182198  25.4427128
  13.8111506  44.8189659  24.5287781  14.5137100  43.8668480  25.4726334
  34.8468361  58.6886787  27.2823906  34.9008217  57.7582321  27.5005207
  34.6662178  58.7042580  26.3425159  33.6751709  54.5306625  44.7120895
  33.9552689  55.3926468  44.4042625  32.7879333  54.6710739  45.0427361
  41.6045265  38.4405251  22.0645428  41.9831848  38.1753387  22.9027119
  42.3394165  38.4172707  21.4516582  84.4301682  24.7848263  65.6423569
  83.6140900  25.0390778  65.2115479  84.8620758  25.6144238  65.8459778
  64.6935654  12.9407969  80.9172440  65.0273361  12.9661713  80.0204773
  64.3091278  12.0686073  81.0051270  55.5091743  47.0672150  79.5357361
  55.8229065  46.6809349  80.3534164  54.9025002  47.7539177  79.8125381
  34.5145187  45.8087807  48.9437027  33.6243820  46.0225983  49.2232971
  34.4640121  44.8955879  48.6612930  21.3297329  37.4514961  19.1773376
  22.1674595  37.7963638  18.8682899  21.2136364  37.8440857  20.0425682
  73.3978882   7.1794820  35.4652290  74.1922913   7.1903505  34.9313393
  72.8068848   6.5849795  35.0031548   1.8387307  38.4083214  84.0881195
   0.9868959  38.2299919  83.6896133   1.7106314  38.2256927  85.0189590
  68.9969025   4.0097365  77.5930862  69.6499786   3.9477293  78.2901306
  69.4878387   4.3187819  76.8317032  84.6724777  34.8447762  44.5556602
  84.8374252  35.5127068  43.8901558  84.1304016  35.2866096  45.2092361
  48.1982956  18.5663185  78.8886566  48.9388733  19.1465683  78.7123489
  48.0815392  18.6086159  79.8377686  57.7839890  58.2336540  83.5445786
  58.3059692  57.5315247  83.9328842  57.6475449  58.8545227  84.2602158
  76.9716568  56.7586021   9.7245264  77.5967941  57.0419884   9.0573502
  77.5134964  56.5378723  10.4821005  77.7281113  12.6359358  70.8446350
  77.3894272  11.7580662  70.6689301  77.7916870  13.0452757  69.9817200
  39.3190308  61.3251648  20.3898830  38.7604561  60.8281860  20.9875793
  38.8575935  62.1543846  20.2645645  17.4103909  49.7760811  45.9203529
  17.0507488  49.6466331  45.0427818  17.7126331  48.9075241  46.1858521
   1.6150234  66.9138260  28.9269524   1.8323371  66.0288544  28.6339874
   0.9900353  66.7833252  29.6401100  10.5619164  20.3134747  18.1145496
  10.5899324  21.0898418  18.6737461   9.7516470  20.4080868  17.6138058
  11.5882826  58.7858124   2.4611061  11.5201826  58.1099052   3.1354532
  11.3696852  58.3339081   1.6461046  70.5871735  29.6007366  64.5178299
  69.6322861  29.5608749  64.5710144  70.7617798  30.1848774  63.7799072
  49.8884010  18.6735592  86.6192474  50.4010811  18.3387966  85.8834991
  49.4998474  17.8934326  87.0150528   0.5982959  65.0744858  21.7561512
   0.5527241  65.4170837  22.6487770   1.4074878  65.4412308  21.3998642
  28.9334126  63.5796967  34.4835243  29.4090710  64.4009094  34.6083641
  29.5477505  63.0162048  34.0130997   1.2763232   2.5967784  12.1977024
   2.1343834   2.9802811  12.0163460   0.8131719   3.2705946  12.6953917
  76.5271072   5.9531555  74.0560684  76.8994141   6.8349752  74.0523834
  75.7836151   6.0045624  73.4553986  55.1456680  60.0500412  33.2325478
  54.6612015  59.2455788  33.0471725  56.0550995  59.8351173  33.0252342
  62.3703728  45.0841942  34.8620224  63.0900421  45.6757545  35.0819473
  62.5767899  44.7732124  33.9805946  80.9752884   0.2802656  16.1916428
  80.7436371   0.2439767  15.2636070  80.4458084   0.9961838  16.5428543
  26.5022354  66.0816116   5.5627632  26.5616188  65.6235657   4.7243733
  25.7331486  65.7029572   5.9886203  55.4979515  47.6257172  17.5254879
  55.2509117  48.5234261  17.7475662  54.7898102  47.0878372  17.8796864
  48.9482498  30.2954674  28.3287754  49.6861992  29.9499207  28.8310299
  48.2851524  30.5007896  28.9878464  20.4048042  27.7137794   7.1302938
  20.7826977  26.8495693   7.2932935  21.1437607  28.3170662   7.2091722
   0.0209615  71.1491241  60.4192429   0.9351446  71.4223022  60.3425827
  -0.4808179  71.9553375  60.2989731  11.4699450  20.7879944  88.5143433
  11.7247066  21.0933800  89.3850174  12.2661924  20.8696365  87.9894104
   0.9624909  42.4106750  64.3933411   1.4365785  42.0380821  65.1367416
   1.3808427  42.0237732  63.6242371  24.5312672  46.3482208  67.9880142
  25.0742912  46.8799438  67.4060974  23.6422462  46.6757660  67.8516769
  77.2927017  23.5782433  16.5096931  77.1607513  22.8962059  17.1682110
  77.9359894  24.1686401  16.9019337  67.7548523  17.6308270   0.1392408
  68.3017578  18.1840038   0.6970232  68.3647003  17.2515373  -0.4935774
   5.3152132  42.2410812  33.3869362   5.0060463  41.3696098  33.6342850
   6.1521964  42.0832520  32.9501534  40.7733231  35.2861824  83.1212082
  40.5293846  34.3645096  83.0360794  39.9684906  35.7660027  82.9256210
  12.3962870  50.4288673  62.7610168  13.0132685  49.6986198  62.7130241
  12.0390244  50.3826866  63.6478424   3.2880304  62.8400917  23.0928421
   3.7999103  62.5985336  23.8647614   2.3844595  62.6309166  23.3295650
  40.2998886  69.9499435  45.0142441  39.7346687  70.0981064  44.2560844
  39.9276009  69.1797180  45.4436569  83.4654007  15.8468351  64.0425186
  82.9232483  16.4200211  64.5845108  83.8993988  15.2662458  64.6676559
  72.6593399  52.3598289  26.3909187  73.2818069  51.8369904  26.8962936
  71.8258438  52.2478867  26.8480701  35.9870071  21.9120045  15.5038090
  36.8482361  21.6350555  15.8165712  36.0801697  21.9547558  14.5521135
  83.7788849  12.9592295   2.0676308  84.5436707  12.9382687   1.4923995
  83.8827820  12.1932888   2.6322303  73.2713013  40.9876900  44.4973068
  72.4140701  41.0033073  44.9229050  73.2092972  40.2763443  43.8598328
  82.9690247   6.7641859  36.1906128  82.4594421   7.0922437  36.9315109
  82.3255234   6.6422873  35.4925575   7.4172864   7.6333842  78.3600464
   7.9729319   8.3452454  78.6774445   6.5243855   7.9292274  78.5373459
  67.5457382  58.0637474  74.2309036  67.1336288  57.1999016  74.2176437
  68.3826294  57.9367561  73.7840042  17.5876579  61.6856995   1.5534654
  16.6352539  61.7691040   1.6003639  17.8471870  61.4067497   2.4315681
  51.6075974   9.5200224  19.0052128  51.7294312   9.8142166  19.9078960
  50.8921089   8.8860760  19.0544128  82.3276367  12.1115341  12.9321976
  82.2724838  11.8716688  13.8572140  83.1164703  12.6502743  12.8710823
  40.8457642  46.1864662  71.0879211  41.2587700  46.3401756  71.9376450
  41.5701485  45.9492073  70.5089493  38.9921188   6.8359761  72.3986282
  38.1223755   6.9040904  72.7925034  39.1388474   7.6903830  71.9928055
  40.8523865  65.7027893  43.8004990  41.2971649  64.8734589  43.9754868
  40.8494949  66.1556168  44.6438065  60.8530388  58.5242271  57.5018234
  60.9179611  57.5814819  57.6542892  61.3267975  58.6675377  56.6825256
  80.2089310  54.6219177  33.1164246  80.8813477  54.0418472  32.7592125
  79.5002975  54.0342598  33.3785858  78.9439163  18.2447891  11.4113541
  79.8044281  18.5315838  11.1055870  79.1339722  17.6374912  12.1264048
  85.3079529  12.2445221  49.6094055  84.4291840  11.9695415  49.8709145
  85.6611557  12.6847429  50.3825073  77.7325897  51.8438148  20.9760876
  77.8843842  50.9156570  20.7980080  78.6095963  52.2189903  21.0556374
  32.9783173   5.2659564   8.1698418  32.1546097   4.8057442   8.3309231
  33.3281441   5.4435797   9.0429401  80.4338608  11.3044062  61.9996452
  79.8409653  11.9674549  61.6459846  80.0243073  10.4701624  61.7704430
  64.8252411  55.4784012  71.8250275  64.2690582  56.0858612  72.3127594
  65.6703720  55.5151482  72.2729492   6.6242013  21.9114628  67.5371399
   6.5793738  22.0585785  68.4819107   7.5004835  21.5548477  67.3915863
  84.0449905  16.9373913  59.3755836  83.3624115  16.3013897  59.1615219
  83.9595032  17.6152477  58.7051849  75.1436234  29.3645477  82.3739166
  75.8259811  29.7006855  81.7928467  74.7227249  30.1481590  82.7275009
   9.3894167   9.0551901  69.5424957   8.9206772   8.2372723  69.3765869
   8.8317747   9.7326555  69.1599960  41.0762062  69.5166855  80.1929550
  40.5122871  69.6945724  80.9456711  40.6870728  70.0201340  79.4778671
  24.9235077  25.2821388  75.8182602  24.7288876  25.8605232  76.5557022
  25.8376389  25.0291405  75.9470520   8.0484734  17.9710903   0.7331559
   8.3728361  18.1223831   1.6209235   8.1642294  18.8112946   0.2894320
  77.3679047   1.1713446  17.0372028  76.6377182   1.6019295  17.4818001
  77.4892807   0.3510495  17.5153389  45.9475403  51.1168709  80.8444977
  45.7725258  50.2801514  81.2751923  46.5724602  51.5568199  81.4208298
  22.0624523  33.1055603  69.0874176  22.0678768  33.7297745  69.8130646
  21.3777275  33.4264603  68.5005569  52.9559441   3.8165157  17.0267353
  52.4607468   3.9515395  16.2187862  52.5957794   4.4585595  17.6385326
  70.4656754  38.7261505  59.2671051  71.4061432  38.5546150  59.2189178
  70.3421783  39.1465073  60.1181526  48.0084038  26.0165958   2.9438918
  47.0609970  26.0896301   3.0592887  48.1193733  25.7661400   2.0267277
  22.4473972  46.7756310  36.8450584  21.5201111  46.5414696  36.8842773
  22.8633003  46.0340652  36.4053535  58.3941154   1.5844460  67.4092255
  58.8270073   1.8903515  68.2062607  59.1084518   1.4424536  66.7881012
  48.7175751  29.4030914  61.9662247  49.2431335  29.9271641  61.3617706
  49.3292160  29.1495438  62.6574860   7.8321252   5.9657040  64.6846695
   8.0921192   6.4130554  63.8793640   7.2182188   6.5675774  65.1054993
  58.0728874  18.6837006  85.5609512  57.9540634  19.2003231  86.3579559
  58.1204872  17.7781296  85.8673935  57.0579720  63.2560921  29.6617107
  56.3511086  62.9418373  30.2254696  56.8070221  62.9728279  28.7824974
  62.6591072  40.5459976  46.5529060  61.8014755  40.4754639  46.1337051
  63.0137444  39.6573944  46.5237732  56.3936501   8.9937315  20.3137741
  56.9830704   9.3230047  19.6352463  56.9710999   8.7640467  21.0418053
   9.0703278  38.8873024  14.3615990   9.2287474  38.1767349  14.9830713
   9.8957663  39.3712540  14.3356190  21.1140575  14.8740864  63.9883842
  21.5615978  15.2385492  63.2247696  21.7121849  15.0381451  64.7174683
  50.7256165  60.1775932  60.2683296  51.0823326  59.5347595  59.6553421
  49.7831116  60.1703987  60.1014023  56.9155464  32.9181328  82.8022766
  56.9100609  32.8978615  83.7592468  57.7960129  33.2163506  82.5740662
   6.9312739  39.7648735  80.9112091   6.9021597  40.5768089  81.4173126
   6.7247548  40.0331841  80.0158920  23.7982903  39.5042152  11.3509464
  22.9559536  39.8257408  11.0295095  23.5728874  38.7640686  11.9145145
  66.3503571  34.5332527  36.3356743  66.5481796  35.2310944  35.7110786
  67.1248322  34.4869423  36.8962822  34.5525475  48.5562782  25.9613667
  34.0272217  47.9129486  25.4855556  34.0108719  49.3453636  25.9743443
  34.0095978   5.9971457  14.8355312  34.8322525   6.3178368  14.4659014
  33.7167511   5.3246384  14.2205458  80.3512115  71.3921509  50.4272232
  80.2361908  72.2556763  50.8238678  80.9126740  70.9192734  51.0415382
  70.0855713  64.4466553  64.0135574  70.1592712  64.3313904  64.9609299
  69.4193497  65.1254807  63.9059792   2.3788548  56.5439873  47.3595543
   2.0836542  55.7841759  46.8577805   1.9620240  57.2911377  46.9303093
  31.1109753  29.0687523   7.0878267  30.6238728  29.0005512   6.2666616
  32.0297432  29.0030518   6.8274760  76.7431641   0.2882676  79.0268784
  77.0400543  -0.0120009  79.8859024  77.4885941   0.1309741  78.4473801
  74.7925949  70.9915543  68.5439377  75.1683960  70.3103561  67.9862823
  74.5125427  70.5276566  69.3329849  17.8617840  64.4232788  86.9827271
  18.1641750  64.9610138  87.7145996  16.9068432  64.4579468  87.0385666
  74.9065857   6.3561592  71.7946014  74.2649689   5.7848339  71.3725204
  74.4496078   7.1901488  71.9035416  69.5885468  35.4033966  59.5295181
  68.9307251  36.0662956  59.7394371  69.6055679  34.8314514  60.2968636
  73.9520493  43.8817253  17.3986912  73.8366852  44.7685204  17.7400379
  73.6243744  43.3125381  18.0950260  20.2277451  46.6343155  43.2753448
  20.1301765  45.6821899  43.2883072  21.1222935  46.7792397  42.9671097
  73.5006409   0.5699252  75.9070435  73.1508026   1.2879411  75.3795013
  73.8347702   0.9941114  76.6973877  63.3974533   0.5936819  51.9561996
  63.0024567  -0.2629803  51.7939072  64.1560822   0.6219572  51.3731842
   4.7768106  13.0431499  62.1890640   3.8536770  13.2896051  62.1314812
   5.1668754  13.7068615  62.7578964  56.4918137  35.4768143   0.1770545
  55.6578255  35.7338371   0.5702900  56.8462791  36.2889214  -0.1849864
   3.5884085  44.7269630  38.1198158   3.5981445  44.4702301  37.1977386
   3.3276410  45.6478958  38.1092834  10.1200085  16.1554813  77.9056168
   9.8275652  15.7547474  77.0870056  11.0312967  15.8770266  77.9964371
  65.8102798   9.0159750  40.2815819  65.8990784   9.8913393  39.9046402
  65.8161240   8.4281778  39.5261421  38.9003601  68.3240967  84.1954880
  39.0489731  68.8245544  84.9977951  39.0718269  67.4158936  84.4444885
  69.7434845  32.8012733   6.6673465  70.2922516  33.5228882   6.9745221
  69.7586441  32.8781281   5.7133574   0.7745605  49.6649246  46.1324615
  -0.0019580  50.2221260  46.1851387   0.4581180  48.7908897  46.3608513
  62.0098419  40.2547951  13.2410660  61.9908638  41.2098427  13.1797962
  62.8922462  40.0141716  12.9587660  56.3179359   7.6461601  84.7618713
  57.0717964   8.2280989  84.8581772  55.8422852   7.9932609  84.0072098
  76.2480240  45.8391724  82.6100845  75.7866135  45.5917931  83.4114151
  76.5385513  46.7373466  82.7685471   1.6906909  31.5776386  16.9623795
   1.8811333  32.0563545  17.7690983   0.7443233  31.6659832  16.8491745
  67.0246277  43.1124344  64.3571320  66.4665909  43.5615845  63.7222443
  66.4396515  42.9054451  65.0859680  70.7426758  40.7230415  38.4762993
  71.1523743  39.9058151  38.7600555  71.1400375  41.3950768  39.0301094
  48.8519287  25.0676212  69.3503571  49.3944855  25.8521271  69.4304352
  49.3987961  24.4462433  68.8696671  24.4676666  45.2488708  49.2674789
  24.4976597  44.7252350  50.0681915  23.5349846  45.4021187  49.1163139
  76.4939346  15.0969515  21.8601589  76.9394455  14.9836979  22.6997566
  76.6029358  16.0254211  21.6544991  15.1468143  19.1879730  10.2125664
  15.0997448  19.8975563   9.5718575  14.6805315  19.5247822  10.9776621
  12.1705694  24.6841240   0.6215810  12.7086515  23.9333477   0.3705119
  11.5624743  24.7979259  -0.1088308  82.4012451  26.5257854  72.6822510
  81.7788696  26.1025772  73.2736588  83.2591934  26.3371143  73.0624542
  61.8703156  64.4534073  61.7262764  62.1373138  65.3467941  61.9426193
  61.3482628  64.5457993  60.9293060   6.2053428  18.5513401   5.2935700
   6.2588792  19.4801350   5.0683880   5.8359213  18.5398674   6.1765351
  56.9512405  68.1222534  63.5482292  56.2587471  67.4634018  63.4972038
  56.5215569  68.8931427  63.9188042  14.0780973  33.6609726  20.1436157
  14.1931677  34.0014114  19.2564335  13.5007915  32.9049339  20.0370369
  60.6846199  70.6349945  26.5278263  60.8459663  70.0263519  27.2487659
  61.5235100  70.6922607  26.0704269  61.0538445  26.3650551  60.4079132
  60.0983772  26.4225597  60.4054604  61.3472633  27.2431870  60.1649704
  55.1793480  70.6010818  43.8917580  54.8527374  69.7116089  44.0273857
  56.1143188  70.5456161  44.0892029  15.5359535  70.4338303  60.4032402
  15.8821049  71.2856369  60.6693954  15.1309376  70.0816345  61.1957970
  37.6210861  40.3894691  83.6183014  38.4945030  40.5544167  83.2631073
  37.0743294  40.2356186  82.8478317   0.5161226   8.6737089   0.4668803
   0.3327193   8.6800289  -0.4725638   0.9562309   7.8374782   0.6193731
  11.4233627  65.8103256   2.0423434  10.9062338  65.8074188   2.8478251
  11.7901163  66.6932831   1.9963721  61.4857788  11.7889900  72.5783234
  61.7158813  12.1410961  73.4381485  62.3207779  11.7238731  72.1148911
  62.4601059  37.8281631   8.6240196  61.6767578  37.3715515   8.3172493
  62.8850174  38.1385002   7.8244119   1.1576778   6.9077106  72.2547150
   0.9889124   7.5440860  72.9495392   1.3944728   7.4397130  71.4950256
  63.6325111  20.0187969  77.5119705  63.0923729  19.4757423  76.9378815
  63.0273285  20.6723347  77.8625031  31.5474491   0.5471404  27.0406609
  30.8258934   0.1318491  27.5130196  32.2410660   0.6372991  27.6941128
  65.8254700  38.8797913  66.6878052  65.6148376  39.1108284  67.5925064
  65.3541718  39.5244446  66.1600418   4.9997382  69.6049423  56.1791687
   4.8171773  68.6692657  56.2653236   4.8236833  69.9643784  57.0486755
  18.4860725  42.6275063  32.4963913  18.4628277  41.7414627  32.1349792
  17.7378273  42.6628151  33.0923042  45.8214378  57.6609497  20.5042992
  44.9828568  57.3030090  20.2129364  45.6833801  57.8735504  21.4273224
  30.2022800  65.8231964  35.3892021  29.8509712  66.7106476  35.4616852
  30.2682781  65.5171051  36.2937355  21.6353245  31.9942017  89.4279099
  20.8159523  32.0658150  88.9382858  22.3170547  31.9990692  88.7560043
  62.0170708  41.8001976   2.7860899  62.1521645  41.1406288   3.4664934
  61.4739037  42.4681435   3.2044809  28.0417175  47.9578514  70.7871552
  28.2509518  48.6073685  71.4584122  27.3043575  47.4672127  71.1502075
  57.9930534  17.6177216   0.0426103  58.4778290  16.8650723  -0.2961250
  57.3094749  17.2346306   0.5923344  15.9639091  69.4333420  25.2665138
  15.9695711  69.7692184  26.1628342  15.6274290  68.5408783  25.3472900
  66.8503418  62.8189659  48.1807060  67.0682373  62.0063286  48.6371841
  66.4130783  63.3553238  48.8420334  38.1995010  55.5422745   0.1114410
  38.8978119  55.9732208   0.6042723  37.7807617  54.9618912   0.7470839
  57.1001129  30.5740528  75.8846207  56.2774658  30.3554211  75.4468002
  56.8574677  30.6982250  76.8021851   9.0747795  58.8044281  61.7316742
   8.9559174  57.8556175  61.6885147   9.1292620  59.0808449  60.8168755
  54.8811302  43.1777992  28.0424614  54.1794624  43.5564957  28.5720634
  54.9626846  43.7695198  27.2945004  67.4312363  63.7138901  25.4076328
  67.0673904  64.5306015  25.0658207  66.6656876  63.1714516  25.5971622
  69.1462708   7.6964583  30.9965572  69.7684021   7.5297394  31.7046413
  69.2926712   6.9824824  30.3760452  67.0998993  -0.1118252  49.0996323
  66.6667175   0.4964618  49.6984406  67.5004578   0.4497937  48.4360275
  22.7793026  67.7330933  35.8241119  22.6825218  67.0604935  36.4982567
  23.5144653  68.2680893  36.1233482  17.6513863  47.3548203  67.5883102
  16.7877808  47.5990829  67.2555161  17.6249237  46.3996582  67.6448135
  16.5800152  67.9249268  88.8673630  16.7891064  68.6311340  88.2559814
  15.6259909  67.9473419  88.9419632  79.8538208  63.2987862  88.1305237
  80.7905960  63.4673347  88.2318344  79.4430618  64.1566010  88.2385712
  48.4868774  67.8546524  26.0428200  47.8103714  67.9515915  25.3726158
  49.0270195  68.6397934  25.9532394  36.5804901  37.0533257  81.1480942
  36.9360886  36.7499084  80.3128052  36.0688400  36.3127861  81.4737473
  57.6929474   9.3373547  87.7186203  58.3861809   8.7117014  87.9288864
  57.0555305   9.2350368  88.4253464  22.4718361  35.7026253  73.8273773
  21.9992294  35.6964645  72.9950104  22.0176010  36.3588295  74.3558655
  12.2583265  18.1148300  33.2285080  12.8103666  18.8892002  33.3372879
  11.3808241  18.4656906  33.0764618  32.7214775  61.6538963  71.9374161
  32.8475151  60.8391495  71.4510651  32.8078957  61.4001312  72.8563080
   7.9615312  67.4983139  80.6271744   7.5186820  66.7447968  81.0174637
   8.2951984  67.9938431  81.3750687  72.4680481  46.3176727  74.4174805
  71.5568542  46.6104851  74.4323120  72.5397263  45.7983513  73.6166077
  65.4390945  24.3681965  52.5833588  64.5977402  24.7589722  52.3474350
  65.5151367  24.5144920  53.5262527  61.0283585  21.8587036  52.0754662
  61.4711800  21.1433430  51.6189575  60.3956108  21.4230862  52.6465149
  75.4653702  49.8990517  63.6973381  75.8825607  49.1364784  63.2965050
  74.6880951  49.5466232  64.1307755  85.9883270  33.1292076   4.1893091
  86.3767166  32.7943726   4.9975619  86.6939774  33.0764198   3.5447099
  58.3090744  20.8902836  53.2260551  57.7005539  21.4717827  52.7702065
  57.9020882  20.0257645  53.1694565  77.7421265  24.0692368  32.1880302
  77.6499863  24.8670254  32.7088737  78.6852875  23.9801865  32.0511017
  69.4548950  34.6550522  82.6341858  68.5227356  34.4984627  82.4832153
  69.4918823  35.5329933  83.0137711  28.2707767  63.4246521  11.4932213
  28.5099850  62.6824226  10.9381475  27.8874779  64.0612411  10.8898392
  40.3634682  41.2979813  82.4274979  41.2954903  41.4531059  82.2741928
  40.0507774  40.8972130  81.6164246  47.2756844  61.2312012  29.7602139
  48.1028786  61.3904495  29.3056602  47.5313148  60.8185768  30.5852165
  35.5627365  47.0712471  76.0570984  36.0962563  46.3677635  76.4268265
  35.9415550  47.2300377  75.1925125  23.5989799  38.1140060   3.3425026
  22.8968048  38.5085411   2.8252740  23.5674324  38.5754356   4.1805487
  49.1552315  17.7552204  30.9262848  49.3773384  16.9248142  31.3473873
  49.2801361  17.5907440  29.9916306  78.9421997  41.3279533  42.2487717
  78.0161438  41.2022629  42.0417519  79.0438614  42.2766418  42.3254776
  64.6837997  27.5065784  54.7103729  63.7795944  27.4575253  55.0206070
  65.1983795  27.6801205  55.4986076  80.1210175  35.8381920  19.8511028
  80.9989624  35.7168579  20.2126522  79.7355347  34.9620781  19.8590317
  75.2350540  17.9639874  63.6587715  75.8765411  18.5798874  64.0128784
  74.9857941  18.3374062  62.8133965  86.3297424   0.7589993  67.7670517
  86.2692184   0.5446618  66.8361206  87.2409134   0.5759993  67.9962158
  12.4884176   0.5907486  73.7423019  12.6453199   1.1879748  74.4736938
  12.2056351  -0.2249962  74.1556091   8.8923130  53.2297440  87.6074905
   8.5851793  52.4760323  88.1112976   8.0990419  53.5956764  87.2162781
  86.7671509  57.2904015  86.4870148  87.0581207  56.3785553  86.4974747
  85.8372269  57.2476463  86.7098083  36.9065056  30.0752430  81.0134048
  37.0155945  29.1343937  81.1517334  36.5102234  30.3922901  81.8249893
  43.6991196  26.7535324  36.4805107  43.4317970  27.6298294  36.2032471
  44.0575142  26.3509598  35.6894836  60.0436020  44.0031013   3.4426074
  59.6474800  44.3121109   4.2573657  59.4507561  44.3099670   2.7566059
   5.3862152  38.9779701  68.1885605   5.4224358  38.2185364  67.6070251
   5.6042814  39.7210541  67.6259766  45.7184753  53.5909920  63.1114540
  46.5737114  53.3288307  62.7707558  45.8315887  54.5075912  63.3630066
  62.3561325  22.4701576  71.8598480  61.4476013  22.3763123  72.1461868
  62.8695908  22.0529633  72.5516129  40.2499466  64.5355453  53.0201759
  39.6120377  64.9352341  52.4289436  39.7312126  63.9499855  53.5717812
  36.8078117  65.2365646  12.0766296  36.9834251  66.0576630  12.5361757
  37.4469833  65.2193146  11.3643131  29.4794292  32.7190437  42.4131203
  29.8529110  32.1117096  43.0517807  28.9830532  32.1613579  41.8140945
  52.6766739  16.4952068  -0.1351169  53.0947609  16.7425308   0.6896665
  51.8561974  16.0782070   0.1278647  30.3291416  41.4167557  12.4918861
  31.0513382  41.7143250  11.9386072  29.6685581  42.1051102  12.4142084
  30.7665939  57.7394371  12.7266216  30.6414967  58.3545074  12.0039396
  31.0686340  56.9342499  12.3062849  63.7306290  70.9828491  49.5917702
  63.3664436  70.0986862  49.5485687  64.5051727  70.9505463  49.0302849
  65.2630920  26.2018604  78.4210129  65.0384140  25.2782097  78.5333633
  65.9873810  26.1977711  77.7952118  45.5332298  34.0224228  15.3847656
  44.6020775  34.2315979  15.3110495  45.5537605  33.0841599  15.5731144
  80.4140930  23.4883347   2.3451579  79.8818436  22.7359581   2.6037543
  79.9880219  24.2375660   2.7615089  11.0057735  54.9252930  88.8185349
  10.3853149  54.3535728  88.3664246  11.3991690  54.3682175  89.4902039
  45.7428551  45.1996689  14.2637062  46.6777267  45.3832207  14.3562059
  45.6817017  44.6589470  13.4762344  27.0110645  30.8967056   4.5343318
  26.0613918  30.8800430   4.4156904  27.1426449  31.3896179   5.3442426
  43.0108147  51.8900566  36.0719299  42.6510925  51.9614105  35.1877670
  43.9543076  51.7972183  35.9398727  45.3302040  45.9244347  73.4744492
  45.8910408  45.5591774  72.7901382  44.4971008  46.0956535  73.0353012
  76.6802673   9.6420774  24.9083729  76.3748322  10.4532213  25.3145561
  75.8801270   9.2012348  24.6226177  18.0832901  59.9900513  37.8631134
  17.4623013  59.7948380  38.5648956  18.9439278  59.8766441  38.2664413
  68.6161270  71.2951355  63.2327766  68.2181168  70.4638977  62.9742050
  69.1220245  71.0845795  64.0176163  61.3943901  11.0885744  48.0569954
  61.5190315  11.8842287  48.5743256  62.1291618  11.0841856  47.4435463
   6.1130748  49.1120644  84.7737198   6.4437928  48.2179947  84.8603058
   6.8696041  49.6199379  84.4805298  64.8405304  62.0136528   9.9703722
  64.2161179  61.3064919  10.1324425  65.5338211  61.8735008  10.6153040
  59.6652718  52.8188095  83.3506088  60.2708435  53.5353699  83.1607285
  59.6854820  52.7343903  84.3038635  30.6345634  29.9513683  88.4327927
  29.7945538  30.3593674  88.6429138  30.7099209  30.0341759  87.4821625
  77.8914719  14.0910349  24.0479279  77.0772781  14.0207567  24.5463009
  78.3462296  13.2653770  24.2144146  81.8987808  52.6845398  31.9520283
  82.7652969  52.9995575  31.6948490  82.0748215  51.9183617  32.4981194
  12.3921938  70.1696243  87.4718704  12.1122541  71.0541229  87.7075424
  12.5309248  70.2064896  86.5254974  55.1902046  57.3069191  71.9908066
  55.8166428  57.9872971  72.2375565  55.0945129  56.7722244  72.7789612
  81.8636932   0.7629966  58.4442978  81.5552979   1.3009647  59.1734848
  82.5687866   1.2760825  58.0495605  60.3316612   6.0249028  19.1394482
  60.8234901   5.8196220  19.9345551  60.2024956   6.9726548  19.1756992
  79.9214172  18.3030319  63.9012642  79.0960464  18.5388031  64.3248215
  80.5966415  18.5898571  64.5161209  74.7056580  69.5134811  85.5526276
  75.5563126  69.3442764  85.9575806  74.0762787  69.4136658  86.2668839
  69.3882675   2.4420149  50.7031784  70.3358383   2.3246679  50.7708893
  69.0565033   1.5772877  50.4614944  63.1316032   6.9118667  33.8302574
  62.7846375   6.3366446  33.1483727  63.7122269   7.5131440  33.3638115
   5.2683649  39.8965378   4.5144296   5.9002943  40.3350563   3.9446938
   4.9273167  40.5934715   5.0749693   2.6707954  45.7162018  67.8285980
   3.2260695  46.1173210  68.4971848   2.1665270  46.4451180  67.4671783
  41.9364891  32.6045914   6.8508348  41.3990555  32.2518501   7.5600395
  42.7582245  32.1170006   6.9077635  86.1347656  16.5236740  25.3870239
  85.3671951  16.2795830  24.8698330  86.6918869  15.7454815  25.3707504
  84.0875931  12.9922552  25.1135159  84.2939835  13.1151381  26.0400887
  84.1382904  13.8713493  24.7382088  58.9282646  57.4971886   6.8739352
  59.7026329  57.4684639   7.4358587  58.1986809  57.6336937   7.4783392
  13.5378962  37.1879311  84.0151138  14.1811962  36.7495270  83.4581604
  13.9223757  38.0457344  84.1956177  80.3234863  56.8611259  29.7873764
  79.7177505  57.0582161  30.5018520  81.0907135  57.4045410  29.9670582
  70.4989319   0.5981276  61.2287827  70.1129303   0.2151751  62.0165482
  70.7219467   1.4937638  61.4824219  12.7049198  51.9555359  26.5640621
  12.6610785  52.9117126  26.5577850  13.5262232  51.7504921  26.1172409
  16.3362007   5.8769417  72.8688965  16.3409405   6.7639990  73.2285309
  17.2567196   5.6145062  72.8665924  16.4898567  64.5119171   2.4120026
  16.0373306  64.2080002   3.1988213  17.1113434  63.8130531   2.2081163
  81.4287567  13.2103291  53.5924377  81.1239014  12.5215321  53.0018005
  80.9621277  13.9954214  53.3058777  56.1723480  20.8482533  41.7807922
  55.5003242  21.0880013  41.1427155  56.9044075  21.4344883  41.5893555
  34.6159401  60.9988861  39.5577011  34.4478874  60.0863953  39.7929688
  34.7426567  61.4429665  40.3961334  42.6388168  33.3062668  47.5021706
  41.6996040  33.1358757  47.5734253  42.9420280  32.6984215  46.8277702
  42.7447853  20.4392986   8.2582026  42.4423447  21.2953854   8.5613155
  43.5646172  20.2939358   8.7304068  42.0525169  43.0197105  76.7569733
  42.7194099  43.5326843  77.2134247  41.5787926  43.6605034  76.2266922
   8.8966360   1.6564497   3.1426392   8.7471151   1.7501415   2.2018430
   8.0388107   1.8113348   3.5380859  15.0349665   1.0629305  26.3906364
  15.7558022   0.4696336  26.6018867  14.6773310   0.7228079  25.5704861
   4.7374091  71.0748825  67.9580536   5.5535989  71.3871613  68.3486328
   5.0005927  70.3316193  67.4153595  55.0033951  56.2794876  74.4825516
  54.7970543  55.3456993  74.5237198  55.4465981  56.4635811  75.3107529
  27.2718334  52.8484116  63.3425751  27.7353134  53.3419609  62.6659470
  27.4596062  51.9316406  63.1413078  39.7315025  17.4739952  13.6662073
  40.2259636  18.0928364  13.1288300  40.0033493  16.6122036  13.3505392
  69.5434799  22.5383377  19.6514874  68.9782715  22.3980560  20.4111557
  69.1339111  23.2629280  19.1787777  82.7392349  53.9424286  78.6356125
  83.1005249  53.4326973  77.9104385  81.8617401  53.5833092  78.7670059
  51.8892632  66.9903412  22.7229900  51.7204704  66.2544708  22.1345768
  51.0596161  67.4666824  22.7548904  58.1431732  37.7577286  81.3053665
  57.9195061  37.7471428  82.2360077  58.9865875  37.3077202  81.2566071
  40.2753067  20.1159687  68.2570496  40.9559288  19.4892178  68.0117569
  39.6959839  19.6246834  68.8395081  10.3735199  39.6726151  44.8419914
  10.4314995  40.5050812  45.3108902   9.5327530  39.7125053  44.3861923
  17.9975967  36.1834145  60.2889519  17.8434563  35.2404175  60.3457870
  18.8336124  36.2621841  59.8294907  55.6328468  71.3544998  49.0779266
  56.4339600  71.0825577  48.6301537  55.4942474  72.2578430  48.7933388
  32.7724991  17.5800133  23.3870220  32.7191391  17.5806675  22.4313107
  33.1947594  18.4112129  23.6038990  81.8497543  21.1044922  53.9532547
  82.7129898  21.4130535  54.2286530  81.8937531  21.0917511  52.9971504
  70.2665939  51.3016357  45.4690933  70.6120605  51.5314064  44.6064835
  70.2020035  52.1372070  45.9315681  75.3843079  64.6437759  24.3368931
  74.6011658  64.4936676  24.8664093  75.7987747  63.7833290  24.2730007
   8.5432568   2.3100405  16.7553043   8.2806959   1.8022460  17.5230522
   8.5738373   1.6702539  16.0439892   2.1680472   1.4168880  17.7613869
   1.5480233   1.7920300  17.1360302   2.3100367   2.1118505  18.4041138
  22.3074017  37.4072762  76.3241272  22.1043644  36.5715866  76.7444000
  21.6770973  38.0228958  76.6982422  65.0588226  48.7604027  30.6492271
  65.1702728  49.5174026  30.0741081  64.4049988  48.2183647  30.2077007
  70.6912460  15.7319098  57.8744965  71.6273346  15.8988962  57.9844055
  70.2943649  16.6024914  57.8461113  44.9380531   0.0322334  12.5245552
  44.9582253   0.9520307  12.7887487  45.2097511   0.0406411  11.6067629
   5.1548100  51.0682640  30.8355465   5.7378864  50.3314247  31.0180912
   4.5893416  50.7568436  30.1287956  83.4318161  28.5708427  37.9583473
  83.4011002  28.1592999  38.8220139  82.8766403  29.3460369  38.0425377
   4.1863322  47.7673073  10.1982403   4.4320674  48.4576111  10.8141365
   3.7880270  48.2330322   9.4629288  45.4837952  64.6001816  65.2810898
  45.7659073  64.1289215  64.4971542  45.5129395  63.9447250  65.9780579
  28.0950260  29.5769711  67.4228210  29.0224380  29.3869572  67.2812881
  27.9640884  29.4450588  68.3618011  67.8718872  10.4368286  25.2002640
  67.8375397  10.1353836  26.1081085  68.2304611   9.6939783  24.7146397
  15.3290081  40.4803925  58.0583763  15.0993490  39.7159271  58.5866585
  16.2169762  40.7054176  58.3360596  50.3602943   8.4388027  31.2263432
  51.2925148   8.5263033  31.0274944  50.1839600   9.1351290  31.8590088
  71.4697723  59.2980003  56.0026131  72.4267960  59.2833595  56.0141563
  71.2269440  58.6022949  55.3916626   8.8790817  64.0391846  37.5297699
   8.5367002  63.5946770  36.7542572   9.7928953  64.2261581  37.3147850
   1.2599729  44.0947952  21.5966415   0.6017063  43.4301567  21.3937302
   0.9481402  44.8838654  21.1535168  25.3831501   0.9604682  74.7298431
  25.6715469   1.6229328  74.1019897  25.3938046   1.4104111  75.5746307
  69.8629913  58.7600899   7.8085895  69.2656784  59.4599762   7.5447631
  69.7402649  58.0786476   7.1476774  70.0750961  56.5964088  65.1681366
  69.1521759  56.7902679  65.3320618  70.1450729  56.5533447  64.2144699
  26.7618942  49.7618256  28.8523827  26.4784241  49.0537033  28.2740784
  26.9431515  49.3308868  29.6876488  10.2551975  35.5656548  34.2530212
  11.1329975  35.1891403  34.1902847   9.7291250  35.0499115  33.6418839
  75.3672485  19.6116161  54.7990417  75.4237061  20.1514301  55.5874863
  76.2041779  19.7479725  54.3549805  41.7103043  15.0392666  63.1562843
  42.2472725  14.2519865  63.2462273  41.9437294  15.3915606  62.2974281
  20.4057522   1.8451829  60.6228104  21.0207634   2.5773792  60.5794449
  20.9350014   1.0752044  60.4148216  79.7498856   6.5400133  12.5636072
  80.5816803   7.0104218  12.5083151  79.4981079   6.3907299  11.6522589
  34.9740829   4.7685294  17.9738026  34.8369484   5.1556482  18.8384228
  34.2202377   5.0576391  17.4596386  15.0040808  62.2883072  35.9171524
  14.6505547  62.5129623  36.7778397  14.3190517  62.5487709  35.3014221
   6.4911256  59.7090034  29.0712662   6.5890722  60.4636765  29.6518745
   7.0115533  59.0199318  29.4842644  44.0812492  31.9842186  30.7536144
  43.7825165  31.1452312  31.1044521  44.8234024  31.7586842  30.1927414
  17.1708145  61.4557838  11.1098051  16.3106098  61.1070557  11.3436155
  17.7684498  61.0673866  11.7487202  32.7782974  22.7838917  15.5025167
  33.4983864  22.1770134  15.6739769  33.1437645  23.6483936  15.6904001
  82.2188873  66.3868866  67.2534332  81.2996140  66.5902939  67.4260559
  82.2130432  65.9607315  66.3963547  82.0556335  12.2103806  30.0688152
  82.3686981  13.1073036  29.9515591  82.2090988  11.7905521  29.2223988
  58.1100616  37.4214401  72.0383682  57.3580780  37.0312347  72.4838867
  58.0121193  38.3626022  72.1827774  83.1616135  28.3007774  55.0309296
  83.7626114  27.6452122  55.3848534  82.2910995  27.9787140  55.2648468
  14.0878839  20.1974258  80.3620300  14.5640659  21.0115299  80.1985779
  13.9577408  20.1823139  81.3102188  19.0546894  67.1299896  22.4452076
  19.3586445  66.4156494  23.0051708  18.1066303  67.1498032  22.5756817
  38.8116264  63.6126862  13.3470993  38.0947266  64.2384033  13.2433672
  38.7401047  63.3146782  14.2539120  35.3578682  18.0382175  66.5815887
  35.6433029  18.9189644  66.8245850  35.6492615  17.9333591  65.6758728
  48.7124023  20.9789200  58.1827621  49.6616325  20.9415970  58.3002129
  48.4382362  20.0622368  58.1552582  11.5811396  26.7562866  71.3850403
  10.9787960  26.5720444  72.1057816  12.1177340  27.4831562  71.7012100
  26.4823437  39.5156059  23.2411137  26.9263496  38.9249802  22.6326294
  26.7669640  39.2250481  24.1076012  16.6603012  36.6477127   5.6618934
  16.2440338  36.9527740   6.4680514  16.5410633  35.6980629   5.6752963
  60.8153114  43.3429832  64.7380905  59.9742393  43.6932793  65.0315628
  61.0567093  43.8926811  63.9925766  68.8320465  64.5798874  27.5500431
  69.6710205  64.1229401  27.6097050  68.5301132  64.4107285  26.6576023
  14.7529831  38.8414612  15.5194044  14.7702150  38.4876976  16.4086666
  15.5323124  38.4756775  15.1009789  24.1531010  63.4826584   4.6294093
  24.6897869  64.0386581   4.0645504  23.2548981  63.6437073   4.3404016
  18.0882759  17.3154182  12.1143007  18.2425556  18.1539402  12.5493965
  18.6463833  16.6956158  12.5839748  47.0328560  40.9885368  72.3712616
  47.5724983  40.4799500  71.7659912  46.1547318  40.6193352  72.2773514
  79.7669525  24.2231560  23.9194107  79.7110977  25.1784973  23.9402618
  79.8430710  23.9675655  24.8387108  45.5389557  51.0024033  78.2030869
  45.5109367  50.0456161  78.2046738  45.5951042  51.2419090  79.1281357
  32.0890961  47.1252937  81.3264008  31.7683563  46.7996979  80.4853668
  33.0400810  47.1595993  81.2230453  45.9780006  27.1637497  81.6038055
  46.0565453  27.0090561  82.5451508  46.1013031  26.3009014  81.2081757
   6.2049699  65.6633377  69.9528122   6.0765052  65.0357513  70.6640472
   5.4682131  66.2692642  70.0320587  73.8757706  64.9778061  61.0954475
  73.7088318  64.0396729  61.0044670  73.5237808  65.2012558  61.9570770
  52.6909676  13.3714914  71.6281662  53.0788612  12.5267420  71.8565674
  52.1138039  13.5767317  72.3636856  57.7036858  47.1509514  69.8921204
  58.2544594  46.3681068  69.8981552  56.8491287  46.8402748  69.5930481
  27.5462360  40.0316582  14.7598143  27.2127380  40.1409988  13.8692780
  28.3618736  39.5424843  14.6517448  13.4410715  55.0926399  15.2077789
  13.8870106  55.0612411  16.0541744  13.6009769  54.2319069  14.8207331
  15.2984533  47.8150406   2.3868413  15.1370792  46.9157906   2.6724021
  14.8200769  48.3554916   3.0155704  63.5002060  43.2264786  14.2955322
  63.9252853  43.9294090  13.8041801  62.5955124  43.2288704  13.9828701
  27.9468613  55.1395073  75.0525436  28.1099319  54.4956017  75.7417603
  28.6002083  54.9425354  74.3813019   4.6333685  23.8359451  85.4586639
   5.0839610  23.6138802  84.6438675   3.9516063  24.4537773  85.1946259
  61.0998917  18.1153851  45.8459206  60.5802498  18.4067841  46.5951118
  61.2102242  18.9012985  45.3107529   6.9587488  31.6385517  18.8169193
   6.4040008  30.8591385  18.7852688   6.3431993  32.3677940  18.8913383
  68.3161316  43.5417404  28.2125988  68.2461853  42.5942612  28.3293095
  69.2489700  43.7279739  28.3191414  81.3907623  31.3402500  74.5293274
  80.8608704  30.5662212  74.3387299  81.4596634  31.7958660  73.6903381
  85.1944962  38.4385605  28.4664173  84.5903549  39.1651955  28.3139591
  85.9034882  38.5809402  27.8392830  63.1059952  59.9837723  39.5549965
  63.9361572  59.5310326  39.4063759  62.8416824  60.2902641  38.6875687
  60.1975899  23.0978966  45.3222961  60.1145363  23.6238499  46.1177254
  59.2978859  22.9819183  45.0168190  41.1044617  36.7128181   5.4055376
  41.5851860  37.4180450   5.8388882  41.7764320  36.0712585   5.1751328
  20.6541882  47.0483742  21.8597393  20.3680573  46.7379799  21.0006599
  19.9153423  47.5611801  22.1874104  58.7102928  18.2839317  15.3231001
  58.4336281  18.5070076  16.2118778  57.9916344  18.5834274  14.7662678
  75.0959549  67.2311401   6.3914442  75.8338394  67.2267838   7.0011487
  75.4680328  67.5453110   5.5673757  83.7499237  19.0207405  18.4967690
  83.8340149  18.0794029  18.6485653  84.1930237  19.1691608  17.6613846
  47.8509254  52.9146194   7.4126019  47.9209023  53.4376221   8.2112293
  47.2147217  53.3845787   6.8735156  67.5054398  69.7306671   0.9034381
  68.2702866  69.4944458   1.4282666  67.3111496  68.9431000   0.3952792
   0.9274074  37.9588242  80.4183655   1.1357491  37.0298538  80.5175552
   1.1291596  38.3420105  81.2720032  27.9874115  64.7703476  25.1922798
  27.3302975  65.4412308  25.3776131  27.4893322  64.0447159  24.8159733
  16.8326283  67.2276688   2.4871824  16.6482201  67.6497421   1.6480875
  16.5846863  66.3126831   2.3546529  77.3235245  28.2043114  22.2731380
  76.6173096  28.4955406  22.8499184  76.9355240  27.4972878  21.7575741
  66.4227676  31.9097595  31.3401337  65.5778046  31.7476521  30.9206257
  66.5997162  32.8354111  31.1725311   9.7105436  38.7731667  57.6397514
   9.4002533  39.6359863  57.9145164  10.5597820  38.9427147  57.2319794
  32.8420563  32.6491852   4.9848676  33.5985184  33.2331657   4.9304171
  32.1718979  33.1663551   5.4316926  28.3284168  16.0354939  66.5414581
  28.1429482  15.1012897  66.4460983  29.2836876  16.0881596  66.5717239
   7.2626476  40.1361694  40.2538223   8.2088795  40.0202332  40.3400536
   7.0285945  39.6264572  39.4781647  71.1483231   8.1094074  88.2038193
  71.6579895   7.9135957  88.9900284  70.2882843   7.7252450  88.3740616
  66.4045258  15.7083979  65.4318695  66.8823471  15.8085403  66.2552109
  65.5267944  15.4329329  65.6963120  50.7611389  39.1480560  15.9044905
  50.2890549  39.7044868  16.5239677  50.0787468  38.7872314  15.3384714
  55.0594978   8.7880373  67.4573669  54.9640884   8.9206161  66.5142059
  54.1619072   8.7069721  67.7798462  19.4849834  38.0779953  26.6774158
  19.4563961  39.0189171  26.8508377  18.5826817  37.8477554  26.4558868
  46.2505760   8.8047504  55.2705879  46.8257065   9.4323874  54.8329468
  46.8145866   8.3674231  55.9084511  61.8901024   0.7312709   9.1791773
  62.6545677   1.0909836   8.7292538  62.2210007  -0.0457227   9.6297541
  52.1236687  43.5762596   6.6481948  51.2501678  43.7233467   6.2854338
  51.9864845  42.9450455   7.3545799  60.2933578  14.4269810  54.8076134
  59.4308052  14.0218716  54.7175064  60.1233215  15.3673143  54.7520065
  82.2285614  65.7564392  71.6880875  82.4423904  65.1309509  72.3803787
  82.8110580  65.5223465  70.9654999  24.5169849  19.5348949  71.7194366
  24.8500786  19.5100479  72.6164703  25.2765446  19.3251705  71.1760101
  45.1714706  52.1012650  71.4142838  44.9711075  51.8274689  70.5192337
  45.9442215  52.6593132  71.3267365  84.9766693  40.3243370  72.4624634
  84.6754837  39.4989090  72.8421860  84.6938477  40.2849846  71.5488434
  57.4021416  30.7864666  23.2179985  58.0622063  30.6718140  23.9016666
  57.9056625  30.9990177  22.4321728  61.8722839  23.7080898  32.6673317
  62.5840721  23.0680981  32.6674652  61.3796349  23.5185699  33.4658394
   0.2944317  25.2945423  72.0491028   0.3193491  24.4276943  72.4542999
  -0.0586431  25.8671665  72.7300339  25.2534866  43.7317162  54.3400764
  25.2113152  42.9168434  54.8405113  25.4406490  43.4528961  53.4437180
  70.4339142  60.8770676  74.0857773  71.1998367  61.4332657  73.9434891
  70.7686691  60.1313019  74.5837784   8.2999468  65.5757370  16.1421280
   9.1593437  65.9205093  16.3846130   7.7073793  66.3215256  16.2364025
  33.7347641  43.5892830  32.0574150  34.3732529  43.3168907  32.7164803
  34.1206169  44.3688850  31.6579571  23.2550049  11.4967470  11.3894053
  22.9964676  10.8285437  10.7546644  24.0726681  11.1683197  11.7632923
  70.5231400  37.9196701  10.1859713  70.2845917  37.3076897  10.8822536
  69.9961395  38.6992493  10.3613529  67.0072708  39.8561745  -0.2005097
  67.2937927  40.0244675   0.6971616  66.2020111  39.3478470  -0.1035786
  69.8183441  67.5386963  47.9453850  70.3343582  68.2941589  48.2268906
  70.4080811  67.0446320  47.3758736  77.1760864  25.7876587  34.6564941
  77.0341415  25.6526165  35.5934296  76.6440735  26.5538368  34.4416313
  42.5836067  63.9950600  87.0307465  43.4731560  63.6598740  86.9185715
  42.6541176  64.9302597  86.8392792  65.2528229  63.1077995  44.3135719
  65.9699478  63.2286682  43.6911926  64.9617615  63.9962120  44.5190964
  26.3531017   2.4339051  16.5410042  26.5527992   2.8438387  17.3826141
  26.9781914   2.8242307  15.9301529  69.3884201   8.4582567   6.7432184
  68.4932938   8.4582891   6.4041276  69.3135071   8.8415680   7.6171136
  54.4357338  70.6306839  16.0142708  54.0101852  71.4390945  16.2999630
  54.5025749  70.7182999  15.0634356  32.3461113  56.1757164  74.0906525
  32.6916618  57.0664330  74.0319290  31.9386520  56.0202255  73.2385788
  32.9755440  66.6259842  36.6727753  33.2762108  66.4974823  35.7731552
  32.5230637  67.4693146  36.6559296   6.1581535   3.2158866  74.6840515
   6.1534133   4.1254945  74.3860168   7.0710449   2.9408100  74.5992279
  33.4310493  70.4410706  69.4367294  32.7547722  69.9230881  69.8732834
  33.3338470  70.2283173  68.5085449  78.5797577   2.5310934  67.8565063
  78.0563583   3.3271904  67.7642441  77.9819336   1.8224721  67.6184082
  57.5459862  27.2811584  26.1708603  56.7616386  27.2339878  25.6242294
  58.2182884  27.6441708  25.5942669  50.0802841  48.0993614  73.6528091
  49.5307693  47.9210892  74.4160156  49.8859673  47.3852806  73.0457153
  75.2977371  20.0367355  47.1728516  74.4056396  19.9235439  46.8448563
  75.6187820  20.8210983  46.7279472  66.1457367  52.1924591  15.7161665
  65.9448013  51.6789513  16.4985771  66.6790924  51.6085510  15.1768932
   5.1967483  25.1115837  62.2205048   5.1960540  24.1670818  62.0651169
   5.0545330  25.1993618  63.1630020  51.6326561  37.7191315  21.9398804
  51.7858963  37.1865425  22.7203274  52.2752266  38.4258461  22.0022316
   1.1305809  48.1920090  80.2625656   1.7442974  47.4604492  80.3289185
   1.6659042  48.9274597  79.9646225  77.2082596   5.1886783  70.9439163
  77.9540939   5.6473656  71.3306580  76.4513626   5.7295518  71.1692963
  23.5246391  67.5882568  40.3461838  23.0895824  67.9799652  41.1034927
  24.4238358  67.4378433  40.6378212  48.7341156  17.8989010  43.2090034
  47.9363861  17.3733959  43.1481667  48.4232788  18.8037930  43.2369766
  22.2483311  68.7177048  28.6473751  22.6618099  67.9485855  29.0394440
  22.3842449  68.6090469  27.7061253  43.0975800   9.2525358  23.9685211
  42.6638336   9.9972620  23.5520134  43.9625244   9.5836697  24.2102909
  79.3875046  24.9013176  66.7245560  79.3286743  25.2043724  67.6306076
  79.6910019  25.6660881  66.2354279  48.6564636  36.7018127  59.0502625
  48.1546364  37.1060219  58.3424377  48.8061142  37.4124222  59.6738586
  35.1028137  63.5113678  29.8748627  35.6830940  63.2270203  29.1687107
  34.3638496  63.9227676  29.4266224  83.0083160  54.2750626   8.7479715
  82.2932129  54.0740738   9.3516855  83.8032684  54.1148720   9.2565136
  41.2563095   9.3933544  56.3809738  41.8719101   9.5792398  57.0899963
  40.4223404   9.2348862  56.8232536  79.9970016  10.9013948  69.1650772
  80.0186005  11.8506603  69.0439911  80.9100571  10.6587334  69.3189392
  62.4875679   5.5113711  86.8201447  62.5038185   4.6618462  87.2609100
  63.0789375   6.0599370  87.3354950  84.3027039  57.2225876  52.6449585
  83.4066849  56.9151993  52.5075188  84.8411179  56.4353561  52.5636292
  48.7738419   4.1106610  11.3113403  48.7824669   3.2013698  11.6102495
  49.6953964   4.3228130  11.1631327   5.3650107   3.2226019  24.9475288
   5.4389930   3.9648240  24.3476410   5.1424661   3.6173499  25.7906666
  59.4231148  25.7887993  77.9054337  59.9685440  25.3942871  77.2249222
  58.7434273  26.2605476  77.4240723  68.8496475  26.2394753  46.0848732
  68.2010803  26.5911961  46.6946945  69.4623947  25.7563381  46.6392593
  63.7646217  58.3204765  15.5911665  64.2381439  57.6345825  15.1204681
  62.8692360  57.9891891  15.6602163  44.6820831  65.2701797  17.8067837
  45.1943550  64.5532837  18.1807842  45.3343544  65.8543549  17.4201279
  27.6717129  48.7771454  24.6185131  27.6047516  49.7288818  24.6956520
  26.7675343  48.4811821  24.5131626  29.7686234  71.8971481  41.7334137
  29.2010078  71.3609161  41.1797905  30.5735302  71.3859711  41.8173943
  64.2367935  55.2933273  19.3723259  65.1557617  55.5342484  19.2553349
  64.1039047  55.3088531  20.3201313  32.9389458  29.8947792   5.1502552
  32.8664894  30.8320503   4.9699588  32.3621788  29.4819431   4.5074968
  34.9263802  58.7521706  80.9150467  34.8276939  58.2337837  80.1164398
  34.7788925  58.1279411  81.6255417  26.0482883  50.2076988  -0.0841283
  25.5312328  50.8729858  -0.5383056  25.8578262  50.3482361   0.8433444
   5.6021771  42.1085663  15.9229145   5.5064664  41.5825195  15.1289701
   5.2181067  42.9556503  15.6967182  41.1656914  22.0824909  83.9516220
  41.5160027  22.2496643  84.8265915  41.3386841  22.8891449  83.4662247
  42.3024178  35.0128212  63.6650848  42.9021759  34.6565361  63.0096588
  42.0621033  34.2594757  64.2044830  52.7418022  62.9835968   8.8156509
  52.6423225  63.8538551   9.2016382  52.4505577  62.3826904   9.5014505
  34.2805443  66.4366150  34.2270203  34.8825150  65.8199005  34.6435928
  34.8489876  67.0396881  33.7480545  25.7873096  67.2044678  48.0894508
  26.2631798  67.7678604  48.6996689  25.0351562  67.7293854  47.8156662
  43.8894463  64.1790619   4.1551752  44.6726646  63.7079315   4.4394975
  43.4484291  63.5731468   3.5596898  38.4858284  40.6058273  29.7499046
  38.9397964  39.8021126  30.0032539  38.0510139  40.3857765  28.9260445
   4.4287801  11.6290932   2.3427844   5.2299223  11.8560896   1.8706869
   3.7663350  11.5338326   1.6584429  16.4370117  41.2503471  45.0469627
  15.5635176  41.6404877  45.0790825  16.5073013  40.8929558  44.1617737
  72.7210693  24.3970699  53.2487946  73.1939774  23.5724030  53.1369591
  72.6671219  24.5155334  54.1971054  21.1536674  54.0573807  51.6121216
  20.7277699  53.8855705  52.4519539  20.7948685  53.3949242  51.0216599
  69.9829712  68.4716110  44.2760391  69.8396988  69.4075623  44.4164162
  69.1140213  68.0802383  44.3654327  41.8673286  52.3878441  78.8174973
  41.2824554  53.0560760  78.4602585  41.4237823  52.0788612  79.6074524
  36.4650536  12.2913923   6.1978960  35.7925415  12.1233044   6.8579774
  37.0749626  12.8928232   6.6251221  78.2248077  68.6748581  14.6144352
  78.5674667  68.7520294  13.7240076  77.5209351  69.3221359  14.6571388
  75.4905930  54.1528740   9.5433025  75.7929688  53.8172493   8.6994104
  76.0949936  54.8664093   9.7477570  35.8314819  51.8044853  50.7994080
  36.1049957  51.3604584  49.9967461  36.6488457  51.9849739  51.2637100
  71.3579025   6.7428942  65.2717209  72.0766525   6.7193747  64.6399918
  71.3384705   5.8618293  65.6453171   4.2637515  14.7897358  83.3530502
   4.7107086  15.6352797  83.3141022   4.7675729  14.2815561  83.9887772
  54.1509285  15.9407711   7.3946271  54.8428116  16.3931732   6.9120688
  54.1311302  15.0614491   7.0169601  36.5839806  41.0886993  24.4605045
  36.2789955  41.0985146  25.3677635  36.0936203  40.3760834  24.0506802
  71.6724091   6.1658483  29.4850330  71.6830521   7.1157188  29.6027775
  72.2457962   5.8325090  30.1752090  61.3230095  17.2335052  60.4029236
  60.8065491  17.1021957  59.6077766  61.6049805  18.1470890  60.3572388
   4.6526108  29.4396019  68.1557922   4.9955702  30.3268948  68.0493927
   4.4380045  29.3757668  69.0864410   1.2923220  37.3097916  74.5082474
   1.1702139  36.7228241  73.7620621   1.5117202  36.7287865  75.2366180
  72.3335876  56.8234596  15.9761086  72.7922668  56.0081482  16.1788616
  72.9548264  57.5126457  16.2113037  61.8238144  18.9959297  28.5679417
  61.4517059  19.2564354  27.7253838  61.2739716  19.4332180  29.2180805
   7.2138200  36.7198601  20.1493626   7.8440733  37.0980072  19.5361595
   7.6109982  35.8924751  20.4212303  66.6514206  23.6353817  27.2723904
  67.0726242  22.7975578  27.4644012  67.3780899  24.2387218  27.1169529
  62.4741898  61.7048454  62.3287201  62.2120285  61.4418602  61.4464836
  62.4689827  62.6617355  62.3048935  45.9076157  59.3498573  43.0141029
  46.7212715  59.6781921  43.3967171  45.4989777  60.1214371  42.6217880
   0.7916640   0.2157238  43.1852760   0.3227513   0.4955915  43.9714241
   0.4959421   0.8182012  42.5027809  65.6087341  45.2406120  38.3132362
  65.6320801  44.3988876  37.8580589  65.5914383  45.0101891  39.2421265
  82.9096756  19.6786346  88.2633362  82.7417755  20.0954609  89.1084976
  82.2519531  18.9858055  88.2031097  57.6847115   2.2870963  47.5887184
  56.7830009   2.4810009  47.8447418  58.2018852   2.9896643  47.9826241
  10.0031443  26.8714027   5.8583765   9.7383060  27.2587872   6.6926579
  10.7513742  26.3165760   6.0787225  25.2989082  12.3406048  37.4636421
  26.1475296  11.9461765  37.6648865  24.7661152  11.6124554  37.1440163
  69.0252075  14.6879845  84.5576706  69.4629593  14.2018642  85.2564468
  68.0916901  14.5518389  84.7196732  78.3403320  18.6931458  67.2447052
  78.4526901  17.8128777  67.6035004  78.9326630  19.2396851  67.7611084
  84.2362671  26.5265732  39.9999809  83.8577271  26.6800060  40.8656578
  84.8609085  25.8138771  40.1346054  76.1075439  45.6129303  77.0054398
  76.1425476  45.9740982  77.8911972  75.2219238  45.2585030  76.9261246
  74.1731262  31.2684956  79.6734772  74.9714508  31.1044540  80.1754608
  73.4779968  30.8586693  80.1883240  10.8763638  47.5829010  64.0745316
  10.7451601  48.5110893  63.8809128  11.4014959  47.5770683  64.8748016
  24.8704681  69.0738831  88.2454453  24.8690052  69.9443970  87.8474121
  25.2186909  69.2137375  89.1260223  79.4624634  29.8325195  68.1503525
  80.3784409  30.0989780  68.2291718  79.4519501  28.9214687  68.4437866
  76.9682312  24.5803223  82.1936493  76.3605042  25.3159180  82.2698288
  77.7733994  24.8909760  82.6076889  74.5549774  39.7093887  68.5359726
  73.9653473  40.4193306  68.2819138  75.3566284  40.1520042  68.8146973
   6.1065593  41.5371590  66.8161774   5.5352187  41.6328239  67.5781784
   6.3201203  42.4351425  66.5626984  18.7552166  22.1177826  14.7550726
  18.0621414  22.7711086  14.8501711  19.5600262  22.6310310  14.6837215
  73.7940216   4.1860356  61.0129318  73.7359695   5.1414723  61.0112686
  72.8852234   3.8909624  61.0699959  21.2495232  66.6505280  52.3360901
  21.0253105  67.0913925  53.1556015  21.8702412  65.9686584  52.5929794
  46.3764076  36.9218674  73.5867538  47.0276794  37.5579681  73.2910233
  45.5362511  37.3625603  73.4596558  13.1290398  10.6399393  63.7995834
  13.2674580  10.1504421  62.9887390  14.0055895  10.9205160  64.0625839
  80.5722046  31.3940506  22.2829704  80.6372757  30.9075851  23.1047668
  80.2021332  30.7666893  21.6619282  84.5553589  34.0336723  52.1546059
  85.1692200  33.5261803  51.6236992  84.5652161  33.6030884  53.0094337
   0.6548762  49.3463898  54.2231903   1.4485767  49.7525520  53.8749008
   0.9550698  48.5202255  54.6020966  19.8154240  13.4139748  70.1186295
  20.5389614  13.6384811  69.5335464  20.2249889  13.3117275  70.9777222
  11.5282850  70.4367523  75.4679947  11.8872604  69.9100571  76.1821136
  10.7481375  69.9588089  75.1866150  10.3007984  13.4600477   5.8839731
  10.7167273  14.2382460   5.5129709   9.5140114  13.3331947   5.3537788
  78.6306000  48.7185860  31.7759857  78.0717010  48.6640930  32.5511589
  78.0196457  48.8296432  31.0475388   9.6136122  55.1826363  36.7187653
  10.4624958  54.7594719  36.5900764   9.2859344  54.8171692  37.5405273
  44.9593506  69.0815277  45.3199501  45.8967934  68.9030762  45.3947067
  44.8180923  69.8536835  45.8677177  71.3043747   5.6254163  17.8223991
  70.9648514   5.2593107  17.0057487  71.7573395   4.8943105  18.2425652
  14.1044664  52.1177254  17.8162270  13.3066330  52.3734322  18.2791615
  13.7993631  51.5490990  17.1092567  45.8079605  42.4695930   7.7697110
  45.6965942  42.0162201   8.6053448  46.0872154  43.3526039   8.0116501
  25.4291668  31.0610065  75.0783005  25.9526558  31.4441299  75.7821503
  25.6060505  31.6161404  74.3188477  18.9793968  45.5853500  73.3364258
  19.5898304  46.1916618  73.7559357  19.5343628  45.0207367  72.7984161
  18.8217545  56.3929939  70.4950638  18.8316536  55.9352684  71.3356705
  18.8553257  57.3209991  70.7272491   2.0020468   2.5493419  51.8756104
   1.8878485   1.6640791  51.5299225   2.1689985   3.0886297  51.1026077
  43.4963455  59.8732681  70.6373291  42.8219757  59.4754868  71.1879959
  43.2890739  59.5750122  69.7517166  70.1264267  43.6977005  47.2476120
  69.2261124  43.3941193  47.3637810  70.2596054  44.3286285  47.9550209
  34.8720360  19.7628574  88.2025146  34.8994789  19.7397137  89.1590347
  35.3235474  20.5740795  87.9695053  13.8981562   6.0947366  70.5994949
  14.4779797   5.9134784  71.3392105  14.4778357   6.1056523  69.8378601
  79.0565109   0.3118675  63.7551575  78.9992599   1.2283621  64.0253296
  78.9895554  -0.1831619  64.5716705   8.7278595  48.6444969  25.1204624
   9.4743357  49.1870804  25.3746471   8.1207857  48.7119102  25.8574486
  46.0011902  21.4528790  60.9353409  45.8668137  21.3944149  59.9894218
  45.1175766  21.4504242  61.3033829  21.3964443   6.7976174  75.5687408
  21.7539425   7.2919598  76.3063431  21.3245392   5.9003057  75.8941574
  56.0768547  42.4208183  11.4309015  55.1552315  42.6489525  11.3092709
  56.2237167  42.5111656  12.3724432  80.4329910   7.3858867  62.3813782
  80.1047363   6.5679297  62.0079765  80.2223587   8.0502291  61.7252426
  34.3709335  40.5426292   3.0037339  34.4155235  39.6427498   3.3269413
  34.3417168  41.0802078   3.7951779   9.5707216   6.3393250  66.8825455
   9.8861542   5.5302949  67.2852859   9.2465267   6.0686808  66.0235443
  63.3504143  65.5707245  15.7562170  64.0352554  65.0267487  16.1452122
  62.8242798  64.9603653  15.2396135  70.9379196   7.8666711  13.5597172
  71.5928879   8.0035896  14.2441912  71.2379684   7.0862198  13.0937777
  73.3550339  40.6864204   3.4023156  74.2435150  40.3797760   3.5834563
  72.8555984  39.8874245   3.2337902  51.8847847  49.8165359  75.2086411
  51.6719284  50.3929863  74.4747314  51.3565521  49.0325432  75.0584412
  75.7414322  40.9717407  72.6529999  75.0139999  40.7790833  72.0614243
  75.4541473  41.7422791  73.1428680  24.6977406  41.7190361   4.9783058
  24.8557968  40.7815590   5.0896187  24.8800373  41.8844910   4.0533061
  78.8803024  37.5153084  12.3892527  78.0256348  37.8839073  12.1658430
  78.7816162  37.2113914  13.2915421  82.3428879  54.4258957  11.5500002
  83.0692673  54.9592743  11.2273273  82.1610794  54.7721939  12.4236460
  34.0612907  49.1756325   2.1128001  33.5272141  49.9333420   2.3512797
  34.8522797  49.5520439   1.7269458  81.7069778  60.1840973  26.1616688
  82.0940704  60.8802643  25.6308670  80.8183136  60.4887962  26.3451366
  30.0664711  32.5560455  67.8885803  30.0825310  32.7427979  66.9499130
  30.2739429  33.3935699  68.3030014  35.2796097  30.3100777  25.7482948
  34.5165443  30.4660759  25.1918488  35.6568489  29.4960251  25.4147701
  83.0795898  67.7914734  24.0748215  82.6118317  67.5739365  23.2685261
  83.8483353  68.2804337  23.7812653   5.3885889  27.4783344  75.1264801
   5.3938508  28.4120731  75.3370438   5.7224388  27.4329624  74.2305374
  36.7517242  48.3299522  20.1944866  36.6641464  48.7652130  21.0424919
  35.9769211  48.6037102  19.7036037  74.3324966  59.1765327  75.4702530
  74.9700394  59.3874359  76.1523666  74.2682266  58.2216873  75.4894485
  22.2821674  41.8897591  76.9409790  22.0941238  41.3728790  77.7243729
  22.8154106  41.3119354  76.3950806  32.4792709   2.4277289   8.4214153
  32.9777336   2.0446622   7.6995931  31.5802879   2.4705584   8.0954952
  54.8979874   1.2373574  70.0054016  55.0024681   1.3466214  69.0602112
  54.0299797   0.8468500  70.1068649  52.5638504  29.4606991  16.9071369
  52.5728340  28.5590973  16.5857849  52.4380493  29.9935703  16.1219921
  83.8883896  28.7180958  63.5743942  83.1630249  29.0541267  64.1008530
  83.4733124  28.3887024  62.7772522  11.1930914  40.3340454  85.5998230
  11.0588884  40.6639977  86.4882812  10.4849281  39.7034760  85.4689941
  55.9015923  65.2362213  54.4307060  55.9750252  64.6819229  53.6537933
  55.9102058  66.1302185  54.0887756  75.1623459  47.3496361  10.7053242
  74.3399658  47.7084045  10.3718500  75.2484970  47.7232933  11.5823603
  44.5534668   5.5697236   6.0800447  45.3987961   5.5900846   5.6314554
  44.6989670   5.0058231   6.8397012  23.4978313  52.3178329  41.6649323
  22.8689384  52.0524940  40.9938736  23.0983028  52.0422630  42.4899597
  69.5108109   2.1011288  65.9750519  69.1662598   2.2768507  66.8506317
  69.6745071   1.1580663  65.9668961  72.8960419  56.5133018   9.9143715
  72.1144485  57.0270615  10.1178436  73.3617096  56.4453812  10.7478991
  66.4361877  55.5642319  74.0457687  67.0459061  54.8672333  73.8035507
  65.7883148  55.1328087  74.6028671  14.7507505  49.4957848  38.6291237
  14.7361660  48.8668098  37.9077301  13.8312798  49.7232666  38.7671738
  65.2452316  31.7177525  87.3285522  65.7275009  31.7210751  86.5017319
  65.0915833  32.6429520  87.5199356  18.9938965  54.9091682  10.8092623
  18.3778343  54.6001472  11.4734955  19.4206905  54.1140709  10.4900503
   9.2610874  62.9348793  57.0438461  10.2091665  63.0666885  57.0419121
   9.0297003  62.8734627  57.9706268  68.0592804  41.7153587  82.9713364
  68.1366501  41.1764450  83.7586212  67.1212006  41.8875389  82.8901825
  30.9272537  37.8154945  86.6125412  31.8725224  37.7701874  86.4688492
  30.6647263  38.6474686  86.2186661  42.3677292  55.2143707  69.5280685
  42.3200989  55.7041779  68.7070618  42.6308899  54.3322296  69.2657623
  73.4851913  40.9948082  71.4967957  73.1129761  41.7622032  71.0622940
  73.0269928  40.2516327  71.1043930  51.2761002   4.6229959   1.9313637
  51.9260788   5.2415700   2.2647147  51.1730156   4.8576837   1.0091234
  13.1946697  30.4415474  86.1163330  13.7029781  30.4080772  86.9267273
  13.4688101  31.2562027  85.6951294  42.2420425  16.3709755  75.3488388
  42.8496399  16.9042778  75.8613358  42.7400932  16.1217937  74.5703278
  36.2197762  54.5754700  18.3733349  35.5042725  55.2079010  18.4390182
  36.2194366  54.1248665  19.2178421  40.0281563   0.4373673  41.7109642
  39.1580849   0.2743477  42.0751495  40.2774353  -0.3930112  41.3052979
  72.3103943  38.3702507   6.9188290  72.6262894  39.1311913   7.4060860
  73.0261841  37.7370605   6.9731102  65.2783508  36.3648300  61.0750160
  65.1760406  37.0502586  60.4147530  64.8023834  35.6151428  60.7177353
  64.8336792   5.1259303  63.7720490  65.1626892   4.2289238  63.8300438
  65.4748001   5.6478624  64.2545319  85.8641205  51.9140968  46.6909218
  84.9713669  52.2568398  46.6490822  86.3030777  52.2957840  45.9307480
  39.1403313  54.7844963  50.7881813  38.8662949  55.3783417  50.0892677
  39.7910080  55.2818375  51.2836609  83.4872894  35.6364937  88.6843567
  83.8062439  36.5178528  88.8785324  84.0689163  35.3179626  87.9940796
  68.1721039  26.8559532  85.7302246  67.6786957  26.1120358  85.3847351
  68.2897644  27.4356136  84.9776459  -0.0011947  56.3245964   1.6470515
   0.8441042  56.3909531   2.0912340  -0.4463640  55.5999718   2.0863404
   0.7007129  56.2313042  31.6867561   1.0705659  55.9582138  30.8471947
   0.6051000  55.4179459  32.1822777  24.7797432  67.8394318  33.7776566
  25.6025620  67.7572708  34.2597885  24.1006794  67.7612305  34.4477234
   0.6909414  67.0613098  57.7932053   0.8327691  66.3270721  58.3907089
   0.3302785  67.7541504  58.3464966  49.1315193  45.2140007  36.4935112
  48.3565750  44.7380333  36.1949310  49.8365784  44.5673599  36.4622345
  68.4140472  35.9990768  65.6909637  69.0818405  36.5860710  65.3363953
  68.7024155  35.1239128  65.4318161  82.1458817  35.5878372  35.2358093
  81.3189926  36.0486412  35.0938568  82.1505737  34.8952103  34.5751419
  69.1648026  61.1911240  79.7976303  70.0610886  61.1142540  80.1247406
  69.2646027  61.4877052  78.8930206  52.8884392  42.5377808  76.5653534
  52.6965599  43.3792648  76.1514435  52.3900528  41.9002228  76.0541077
  29.4217167  62.2705650  67.9373474  28.8545933  62.8482094  68.4481583
  30.2713184  62.3203964  68.3754425  47.4895592  58.3000374  11.3827419
  47.7365417  59.2123184  11.5343332  46.5708389  58.2534866  11.6473455
  59.4247246  27.9677525  45.3184471  59.4124146  27.4686012  44.5017891
  60.0698433  27.5181465  45.8642578  71.2909470   3.3681612  78.9423218
  72.2121735   3.4658446  78.7014236  71.1280518   2.4264190  78.8892212
  34.8458061  52.6500359  16.6450329  35.4099731  53.2717133  17.1048851
  35.4399872  51.9596252  16.3508873  52.5489311  64.1211548   1.4233032
  53.4011917  64.2104568   0.9967983  52.1513481  64.9886169   1.3479905
  76.0381851   4.0388436  43.1725044  76.2256393   3.2172935  43.6265411
  75.7648239   4.6389642  43.8663063  24.8467712  41.4604225  81.6651077
  24.5162792  42.3235397  81.4160309  24.1596794  40.8527489  81.3914871
  59.4917641  27.5594864  19.2036095  59.7228775  26.7001171  18.8510456
  60.3214684  28.0356140  19.2372074  48.0817299  71.0146027  47.0240440
  47.8118629  70.7859802  46.1345863  47.9019318  71.9520493  47.0953979
   3.2763832  38.1269417  71.6438675   3.5546172  37.8862152  72.5275345
   2.5206842  37.5659065  71.4695358   5.6191077  59.7799072  41.8531685
   5.7372894  58.8913116  42.1888199   4.9004264  60.1389084  42.3735962
  12.7082090   5.8391185  15.8165236  12.1920166   6.6146388  16.0363998
  12.9296608   5.9529419  14.8922749   0.6775684  33.0100021  26.6177807
   0.2047762  32.5846367  25.9024048   0.6723868  32.3651237  27.3251266
  47.3365059   0.2022508  16.7684975  47.0189819  -0.3859018  16.0833054
  47.8389015   0.8680010  16.2988129  47.1428680   5.7015381  31.5333481
  47.2111664   6.1477885  32.3774033  46.3462067   6.0562210  31.1386738
  32.4084015  52.1394234  69.5366364  32.1201324  51.2396164  69.3834000
  32.3209114  52.2612381  70.4820175  71.5775452  44.6749344  45.2169380
  71.1866760  45.1171341  44.4633408  70.8348160  44.4643593  45.7828369
  46.5642014  64.4933853  59.9623337  45.8104362  65.0671616  60.0996323
  46.9024849  64.7439270  59.1026649  10.8744192  67.7236557  32.3405724
  10.7993317  68.6764679  32.3930130  11.8068314  67.5494537  32.4689980
  81.9129486   6.8535562  79.2544708  82.8657227   6.8232641  79.1676636
  81.5856552   6.6038842  78.3903122  54.6716232  24.8927021  58.0547028
  54.2356644  24.0578213  58.2254219  55.5992508  24.6680622  57.9820747
  42.7448959  59.1043434  20.2135963  42.6114807  58.1567497  20.2359619
  41.9916916  59.4408684  19.7281399  11.0100098  55.1371040  56.1301727
  11.5504694  54.3612480  56.2791138  11.6384840  55.8540382  56.0449791
  67.0631104  27.8246956   8.2176800  66.5238876  28.5400696   7.8804774
  66.9806519  27.1327419   7.5614543  21.2638683  43.2020683  80.2022705
  22.1351700  43.4096375  80.5398865  20.7586155  44.0043297  80.3339005
  60.9487267  62.1419640  46.9558220  60.2380180  62.1431656  46.3146324
  61.7102623  62.4584122  46.4698639   5.2206993  41.9329147  75.0769501
   5.0186987  41.2588997  75.7258987   6.0328956  42.3310890  75.3900375
  28.7987366  14.0393562  75.5321274  28.8043365  14.8586102  76.0271225
  27.9101162  13.9772625  75.1817932  16.8363552  41.2035255   1.0548614
  17.0637722  42.0826721   0.7521825  16.3331165  40.8247719   0.3340792
  11.4103060  57.4426041  75.9681473  11.9398623  56.8541908  76.5062637
  11.9727345  57.6580124  75.2241669  35.9981880   3.5565326  20.9802608
  36.1671181   3.0684338  20.1743755  35.5654831   4.3588133  20.6881237
  83.1810913  21.2039680  13.4812222  83.5554733  20.3230667  13.4720764
  83.8984909  21.7720337  13.2003899   0.8961102  53.8015976  60.8716774
   0.9837010  53.2170029  61.6245461   0.3825851  54.5396538  61.1999969
  63.4804230  67.0604935  54.6928177  64.4126587  67.2773819  54.7042999
  63.4063606  66.2918472  55.2584419  40.2634697  57.1094704  21.2725067
  41.1409416  56.8234749  21.5264416  39.7700081  57.1252022  22.0925541
  53.8023949  31.7645702  57.0138779  52.9908600  32.2335052  57.2081680
  54.0146904  31.3062077  57.8269386  46.3410492  55.4172211  30.0157604
  45.4534683  55.1798820  30.2842865  46.5933723  54.7352638  29.3932667
   8.4978285  57.3891907   9.1325588   8.6290121  56.9038887   9.9471149
   8.9903650  58.2007217   9.2552814   5.0007963  49.1958771  51.6520653
   4.1763921  49.6101837  51.9068985   5.5460119  49.9186096  51.3412132
  15.9792423   5.4933534  10.6193151  15.1868649   5.9710712  10.3740482
  16.6738205   5.8991990  10.1005840  27.4695206  68.4838257  38.0565186
  27.9844093  69.0192261  38.6602249  27.5144863  67.6002884  38.4219856
  78.7522278  48.1563797  25.3060036  78.1042709  48.1652145  24.6015110
  79.5488739  47.8213272  24.8945122  60.0256157  39.8108673  81.5159149
  59.7702026  40.0858498  82.3964767  59.3079948  39.2493362  81.2227631
   7.7261682  39.3154449  30.2031002   8.1304598  39.2003517  29.3431396
   7.8578310  38.4760628  30.6439323  16.6101360  21.5609169  17.4765129
  15.8495588  20.9879360  17.3793201  17.3554707  21.0136414  17.2291279
  51.4381218   1.0007622  19.7111607  50.7431412   1.4008524  19.1885109
  51.5275917   1.5758653  20.4710827  78.8492203  15.7704000  33.3730927
  79.4309464  16.0147591  34.0928955  78.8582382  14.8132429  33.3722382
  19.3267365  57.0906181  13.8216591  18.6107311  56.5290298  14.1186285
  19.9407253  57.1042938  14.5558672  64.7967911  56.7582130  84.7533875
  64.9030380  57.1978912  85.5969696  65.3862381  57.2273445  84.1628723
  79.1402740  15.6728191  14.3879786  78.5169144  14.9534378  14.4887037
  78.8678970  16.3187904  15.0397167  55.3063126  70.6709595  76.0987625
  54.5608292  70.1751480  76.4373627  55.1588593  71.5652542  76.4065475
  48.4419060  19.0188541  19.2938614  49.1436234  18.7145710  19.8693905
  47.6659546  18.5430107  19.5900173  18.8042412  35.4025955  43.7635880
  19.0835323  36.0566444  44.4042511  18.0255451  35.0039864  44.1521454
  83.5400848  13.8460588  36.4217796  84.0662918  13.3193989  37.0234184
  84.1737289  14.2044878  35.8002853   4.8633790  17.6096783  29.1066284
   4.9617848  18.0021019  29.9741249   5.6391978  17.0585594  29.0036507
  43.6780510  33.7999268  44.4815979  43.6069221  32.9052658  44.8143959
  44.2208328  33.7212105  43.6971092  14.7476196  52.6623688  75.8152161
  14.9622641  51.9917641  76.4636383  15.1550922  53.4603386  76.1520309
  78.7519760   1.8283880   2.5983050  78.5977783   1.6613193   1.6684977
  79.5390625   1.3243580   2.8049049  86.3339920  56.3707123  71.9512558
  86.6132507  56.6460686  71.0780945  87.1309738  56.4069862  72.4801559
   4.7662191  68.1353302  41.6005516   4.1801186  67.7010956  42.2203560
   4.6696205  69.0680389  41.7927704  84.0492096  10.4254875  55.4360771
  84.1347351  10.2935104  56.3802681  84.3222351   9.5922832  55.0520706
  86.3033752   1.3001118  45.3726273  86.7591248   1.6966289  46.1151237
  85.4111404   1.1566133  45.6881447  25.1748848  28.6753788  10.9841328
  25.4573975  28.5364437  10.0801888  24.2420540  28.8785458  10.9149885
  36.4021683  58.3142891  53.8973579  36.8158035  58.6403198  53.0980797
  36.5072861  57.3640099  53.8509636  73.3493576  37.3058510  51.0543671
  73.2702179  37.8970718  50.3057518  73.5416412  37.8812790  51.7947311
  80.2455215  43.7543831  49.4045830  80.2907791  43.8838234  50.3519096
  79.9450912  44.5961380  49.0619125  45.1882515  17.6731567  66.1924744
  45.7064934  18.3727779  65.7947464  44.7517319  17.2488766  65.4537811
  30.8776569  43.0019569  30.4757328  30.0161037  43.1572189  30.0886269
  30.8411961  43.4413376  31.3253498   2.4686279   3.0979607  19.7434330
   1.7401856   3.7142262  19.6671410   2.1762240   2.4610260  20.3953876
  82.5984955   7.6043320  63.9574203  82.5335236   7.0496168  64.7347870
  81.7548447   7.4998918  63.5174561  40.2449837  71.3100204  58.9869461
  41.1737671  71.1307373  58.8405075  40.0615959  70.9351273  59.8483734
  40.4127655  61.6031380  10.3982153  40.1722908  61.0732002  11.1581945
  40.7571564  62.4145622  10.7713327  71.2873306  70.4453354  45.8398743
  71.9426041  70.6845932  46.4953194  70.6088638  69.9869843  46.3356895
  46.2633553  32.5813332   2.3543620  47.1535606  32.5559273   2.0034797
  45.7017975  32.4308319   1.5939441  81.5601578  15.9834404  16.9421310
  81.6026535  16.0478134  17.8962193  81.9303131  16.8090153  16.6296501
  43.6489754  50.1902275  46.9986038  43.2464600  50.1851845  47.8670425
  42.9463081  49.9201622  46.4073639  81.2066116  43.5155144  45.3178444
  81.7833099  44.2019539  44.9824944  81.6052399  43.2517929  46.1471710
   0.5935690  27.1218967  28.8138447   0.9702787  26.3185768  29.1730042
  -0.2967795  27.1465092  29.1644230  82.1317444  25.1280861  87.9490967
  81.8864136  25.8237820  88.5590591  81.6727753  24.3529472  88.2727280
  56.9996758  46.1373367  39.6276970  57.3937225  46.8882751  39.1837883
  56.2072525  46.4881439  40.0341835  65.5728455  39.7680702  69.3872986
  65.2298355  40.6398087  69.5839081  65.2355804  39.2136765  70.0909576
  21.0108700  52.9570961   7.7932396  21.7429390  53.0885391   7.1907201
  20.4709110  53.7405014   7.6885924  72.4161148  28.7228565  77.5048218
  73.3252869  29.0108395  77.4229279  72.3429413  27.9854698  76.8989029
   5.1089382  39.5136795  33.9126282   5.7193508  38.9876251  34.4292450
   5.1561484  39.1400490  33.0326233   2.4810798  63.9730186   4.7794523
   2.4946473  64.3873596   3.9166837   3.3226526  64.2071228   5.1708393
  33.4548225  36.6665573   9.3195581  33.1984291  37.1671715   8.5450392
  34.3593979  36.9309959   9.4870358   0.0361981  61.0313721  81.6529999
  -0.0541599  61.8542595  81.1724548   0.9741766  60.8419762  81.6293945
  54.9465332   1.8170416  72.8332291  54.9993515   1.9352735  71.8848267
  54.4771194   0.9904731  72.9457703  56.2245789  51.7589531  25.3129482
  55.8611526  52.4297714  25.8910084  56.0157661  50.9311142  25.7457409
  23.1378937  51.0494461  19.3480358  23.0708218  50.3631096  20.0118694
  23.7696953  50.7090912  18.7146187  64.7628937  61.5951691  69.4562683
  63.8623581  61.2751579  69.5097046  64.8949966  61.7847290  68.5273743
  46.4239388  46.4169006  34.1528358  47.1945801  46.0499039  33.7196388
  45.6894722  46.1541176  33.5980988  58.8951454  34.2770844  74.4397964
  59.7802544  34.0131912  74.1884537  58.6432533  33.6528473  75.1203156
  58.2942276  28.8400173  51.7273293  58.7798958  29.6622581  51.7927551
  58.1022072  28.7488728  50.7940254  39.0400543  24.8968353  14.9084511
  39.2966385  25.4294453  14.1556416  39.7407494  24.2504158  14.9944725
  68.7845840  63.1923294  22.5922470  69.7051163  63.4099922  22.7387753
  68.3142014  63.6669960  23.2775688   6.4881577  32.7683372  15.3859215
   5.5675297  32.5062943  15.3829012   6.9684038  31.9579601  15.2159739
  44.3281136  58.2238541  62.4445038  44.5147629  57.6230621  61.7230873
  43.6916885  58.8410721  62.0836182  31.5539856  20.6252289  79.7694473
  30.9831486  20.3693943  79.0449295  32.3785553  20.1708508  79.5966568
  82.3494339   1.1873269  26.6598778  82.4687424   2.0774853  26.9909611
  81.9977570   1.3051189  25.7774506  57.3145714  21.1939850  20.8737240
  56.5049782  21.6487141  21.1061325  57.5838661  21.5922871  20.0460339
  28.0001240  70.6425552  40.0308266  27.2860126  70.8613586  39.4321594
  27.6744690  69.8922195  40.5279999  45.9378510  54.8972282  38.6400909
  46.4801712  55.4240723  39.2270775  45.1519127  55.4257011  38.5013313
  55.4035034   9.1007576  89.1456909  54.9985695   9.4371662  88.3462601
  55.0021019   8.2413330  89.2741394  67.3816986  60.8173294  60.8774796
  67.4297791  60.4571915  59.9919167  66.4784851  60.6587219  61.1518326
  63.7310638  16.5757694  71.0003815  63.1850090  15.8809319  70.6326065
  63.2832794  16.8306370  71.8070755   3.4958782  69.2494888  32.1354828
   4.0532951  68.9665909  32.8603897   3.9374871  70.0211029  31.7807636
  55.2541161  47.7161522  59.5326614  56.0095940  47.6477623  60.1164436
  55.6341553  47.8208199  58.6603966   5.3243523  37.5975304  81.6031876
   5.8013124  36.7863235  81.4280167   5.9308357  38.2921677  81.3464890
   5.5904832  13.1272516  85.1007538   5.1665683  12.2780180  84.9769363
   6.4172835  13.0540018  84.6240234  75.3518600   3.2907777  63.0414467
  76.0763550   3.9151616  63.0029182  74.7537460   3.5749550  62.3502617
  51.9812355  31.3238506  72.8998871  51.1876183  31.5729160  72.4262161
  52.2281570  32.1115799  73.3843918  69.4623032  50.4785576  12.0196714
  69.8912659  51.2651711  11.6828308  68.8132553  50.2553520  11.3524818
  57.8281937  18.9091892  44.6379128  56.8733902  18.8960915  44.5715256
  58.0789795  19.7742138  44.3137627  68.1232605  32.3216362   3.8461690
  68.3262939  31.7741108   3.0877333  68.4937592  33.1773186   3.6299067
  59.5671692  44.2875710  67.1184387  58.9984169  45.0447578  66.9790878
  59.6824265  44.2460823  68.0677719  46.3548164  21.6659851  78.0273285
  46.3623886  20.9653854  77.3751526  45.9709358  21.2637672  78.8064880
  72.5659866  20.1562843  55.1971817  73.4554901  19.8032990  55.1768265
  72.5709686  20.7762909  55.9264259  17.9086514  31.0794353   1.0445062
  17.1760406  30.4845409   0.8844656  18.6677036  30.6300182   0.6728933
  16.3090191   6.3546190  27.9467926  16.7155151   5.9571667  27.1767120
  16.3652821   7.2968597  27.7878952  67.4720993  54.0356369  38.3874969
  67.3819809  54.9495926  38.1176834  67.6249084  54.0785294  39.3314476
  68.7453156   9.1505928  53.9728851  69.5359650   8.6112394  53.9586830
  68.7528763   9.5640020  54.8361740  63.6553192  49.0677872  53.6538429
  63.4246445  49.9938011  53.7281570  63.3013153  48.6682625  54.4483795
   2.9459655  26.1027412  85.4324036   2.1263938  26.5931015  85.4962921
   3.4852941  26.4436588  86.1459427  45.2193642  31.0863972  79.8563919
  44.7182770  30.2727776  79.8001175  46.0717430  30.8693275  79.4788132
  63.9945564  58.4122429  33.9112587  63.5029640  59.1621475  34.2462311
  63.4761925  58.0975266  33.1706619  80.8026505  17.5300217  70.9001465
  79.9834366  17.7180557  71.3581467  81.3811417  18.2550373  71.1366577
  72.2220764  31.3808823  75.6229172  72.1356659  32.1744919  76.1510773
  71.4808121  30.8357410  75.8866959  36.0427132  65.1844711  49.6174088
  36.0829353  64.4346924  49.0237389  36.4642792  64.8773499  50.4200249
  82.2347260  56.6666908  68.2468948  82.4105530  55.7308083  68.1497498
  81.3733139  56.7066994  68.6623459  52.7336578   7.6468682  78.5242996
  52.8976135   6.7263508  78.7292252  51.9188309   7.6389842  78.0220718
  71.6400299  26.3238716  19.1298141  70.7334900  26.0432892  19.2550755
  72.1125336  25.9453030  19.8712006  81.8481445   0.7542239  88.6575317
  82.2819748   1.4802794  89.1057129  81.2463989   1.1764534  88.0444641
  49.3225517  64.2546692  70.1247787  48.5495567  63.7328720  70.3402786
  49.3320732  64.2848282  69.1681061  46.0590935  16.3781567  28.5332699
  45.1346436  16.2343197  28.3309441  46.4949150  15.5760536  28.2453098
  52.9712601  56.9628563   2.8223155  52.6275558  56.7148323   1.9640707
  52.8969727  57.9169350   2.8434739  14.4379158   3.5403156  66.7054672
  14.3374968   3.2715266  67.6186523  14.2887707   2.7397637  66.2023773
  24.8474541  21.6380367  68.9928970  24.0585709  21.1048012  69.0906372
  24.6881256  22.1594887  68.2061768  35.2668304  12.8818331  75.2543564
  35.6937637  12.5724277  76.0532455  34.4967918  13.3589115  75.5636597
  28.8081341  46.6063156  15.5417480  28.7774563  45.7676468  16.0020981
  27.9662704  46.6623344  15.0896854  13.8999109  57.0677414  71.2278442
  14.6254139  57.2065849  71.8366165  14.2783623  57.2287560  70.3635101
  30.0185623  11.6304445  72.2607880  29.1644459  11.3441086  72.5844040
  30.4437199  10.8262424  71.9629135  71.7316895  43.2705650  13.7659035
  72.5761185  43.7212791  13.7705002  71.1422272  43.8709373  13.3094711
  77.8023605  59.6079521  31.7480717  78.4628448  59.4661369  32.4262199
  78.3044052  59.8658676  30.9749813   9.8898363  48.9191551   7.8160734
  10.4407053  48.1654053   7.6048036   9.4047375  49.0947800   7.0098052
  67.4631195  42.3830566  12.6159754  67.8434296  41.6948128  13.1617994
  68.1967621  42.9655609  12.4192781   3.8995929  50.0429649  88.9972534
   3.0913963  50.3794441  89.3843384   4.2982583  50.8042259  88.5756149
  38.3922119  51.5340424   8.4204779  38.0890579  50.7449493   8.8695507
  38.4505539  52.1948624   9.1105089  58.9893646  57.7175751  63.0494156
  59.1750298  57.8684425  63.9762383  58.4576111  56.9217453  63.0381241
  79.7870865  29.0936584   9.6826010  79.0530777  29.6322689   9.3870382
  80.2626953  29.6531162  10.2966337   3.2761459  64.7556992  56.7966957
   4.1013422  64.2715759  56.7665482   3.0153511  64.8418274  55.8797417
  73.4870224  12.1378317  80.2632294  72.5413666  12.2837219  80.2371216
  73.8090210  12.7687941  80.9069977  71.4816895  21.2202377  70.9001389
  71.5597534  20.6711960  71.6803207  72.2556610  21.7829056  70.9248047
   2.3108809  40.3347588  19.0499897   3.0786450  40.8891869  19.1892014
   2.3690073  39.6687508  19.7350349  44.6508026  51.3620186  56.4526367
  43.7705803  51.0078545  56.5791359  45.1007690  51.1861725  57.2789764
  69.4186020   9.8959656  62.4260292  68.9073029   9.4549084  61.7475967
  70.2123032  10.1866341  61.9768143   4.6871595  18.9977760  79.3471832
   4.5292134  19.0572815  80.2893829   5.4583225  18.4362030  79.2685928
  18.4953060  29.4184208  68.3225327  19.0526619  29.1584301  67.5890579
  17.6026344  29.3248425  67.9899445  80.6740417  63.0377502  20.9049683
  81.5208206  63.0374680  20.4586582  80.5980988  62.1582870  21.2751160
  10.4083366  54.8725243  84.2709732  10.8182898  55.1312981  85.0963287
  10.0488224  55.6858597  83.9167633  12.8538980  35.2232361   4.7377257
  12.2004251  34.9554405   5.3838606  12.3544178  35.3530769   3.9315662
   2.7887146  11.1479588  18.5005474   2.4651875  10.3507261  18.9200497
   2.5583339  11.8495159  19.1096249  36.8411217  47.2365341   3.5801063
  36.9052544  47.7718468   4.3710289  35.9197121  46.9806519   3.5381446
  82.6210327  41.4286995  89.0403595  82.8837128  41.9208069  88.2624969
  83.0107651  41.9092445  89.7707138  54.4572868  51.4875984  36.2694168
  53.7160683  51.4856720  36.8750763  54.8096199  52.3758621  36.3248978
  34.6972466  48.2171478  14.9966497  34.1362648  48.9824066  15.1227913
  35.4373207  48.3629456  15.5859394  60.4163055  64.1349792  56.3544006
  60.5404243  63.1884117  56.2848663  60.8447380  64.4905548  55.5757828
  68.5224152  61.6515160  82.6438828  69.3237534  61.1283798  82.6643753
  68.3180389  61.7402344  81.7129745   2.9122715  16.5920448  18.1949539
   3.2692144  15.7538548  17.9012547   2.6255748  17.0251942  17.3909531
  45.0676155  68.6094742  27.9806099  44.4220619  69.0210571  27.4060688
  44.6620064  68.6263428  28.8474598  60.5935631  51.0529861  81.5391998
  60.0968475  51.1593056  80.7279053  60.2887192  51.7649345  82.1017227
  76.1985931  63.8180847   6.4813013  75.5042801  63.6164474   5.8540025
  75.7346191  64.0497208   7.2858562  10.1264305  41.1494980  79.0612106
  10.6601381  41.9166107  79.2683945  10.5763416  40.7367134  78.3240356
   8.8475914   2.1913610  10.6534510   9.6084099   1.6964649  10.3493681
   9.0503960   3.1008666  10.4345856  77.1017151  24.0844002  59.9350052
  77.5380630  23.4493771  59.3670464  76.3502960  23.6104221  60.2913132
  67.5059509  17.0769253  25.9341469  67.4873734  17.3330345  26.8562622
  68.2973251  17.4886608  25.5871105  65.7306366  10.3112087   7.9437079
  65.9725876   9.9873533   8.8113546  64.8517303  10.6722832   8.0593395
   1.3131498  68.6702957  51.5778389   1.2579795  67.8823318  52.1184807
   1.9616888  68.4557800  50.9073105  60.9502144  17.4412346  13.9037495
  60.2245216  17.7547493  14.4434814  60.6833267  17.6380405  13.0058231
  81.2217712  13.4322901  68.9399109  81.7058868  13.2072191  68.1454315
  81.4096909  14.3603382  69.0800781   3.9057746  50.5992775  23.6984196
   4.3652658  50.3244476  24.4918747   3.6810958  51.5160942  23.8571472
  85.7469330  62.7693977  55.6282921  85.2075348  63.5601234  55.6340752
  86.0588837  62.6988525  54.7261047  10.6864157  64.9984512  35.3715324
  10.5229683  64.2535706  34.7930260   9.9103279  65.5505676  35.2762032
  66.9203110  44.4662857  40.9470711  66.8829727  44.4647942  41.9035416
  66.5495682  43.6215935  40.6915894   6.7712255   9.8674517  75.5177002
   7.1021042  10.7351704  75.7496872   7.5479455   9.3080559  75.5139847
  44.9790802   8.9137564  17.0744648  45.6404266   9.1783600  17.7138691
  44.1474495   8.9995422  17.5405807  62.8126602  47.2653656  19.2662926
  62.8719788  48.1875496  19.5158787  62.7270851  47.2802582  18.3130417
  36.9006157  28.7455387  22.3182926  36.2249146  28.1961651  21.9209957
  36.7983017  28.6076889  23.2599735  20.1107616  16.9256382  58.9419785
  20.8065434  16.6790867  58.3326073  19.6171761  16.1174850  59.0816040
   1.5782866  56.7155418  14.4975147   1.8812190  56.5041580  13.6144638
   0.7816331  57.2283440  14.3610907  39.1620979  39.8631554  80.4183044
  39.8847961  39.5231857  79.8907089  38.6346169  40.3718605  79.8025055
  37.5931320  67.0599670  32.4559708  37.7164154  67.1895828  33.3963089
  37.2367744  66.1747589  32.3809013  83.1947937  31.4218426  71.0433731
  82.7837219  30.6027985  71.3198090  83.0127563  32.0338135  71.7565231
   6.8193617  46.9073868   2.5085797   7.2819219  47.0569229   3.3331456
   6.0903711  47.5274391   2.5270395  86.4797821  35.0311241   0.8050135
  86.6696091  34.0949364   0.7438239  87.2530899  35.4052200   1.2272402
  80.3253784  33.7015457  83.5355606  80.1912537  33.3210754  84.4035950
  80.8233414  33.0382957  83.0576782  43.0243111  53.4064407  11.6132326
  42.8184662  52.5249100  11.3021669  42.2681274  53.9338913  11.3559103
  55.4117851  52.6342545  32.3789902  55.9823608  52.1500359  32.9758224
  55.6201439  52.2851334  31.5124245  16.9975643  19.3619404  77.6158066
  17.1968632  19.0143299  78.4851074  16.1261597  19.0203686  77.4152756
  37.5730972  38.1033478  56.0443192  36.8805046  37.5058517  56.3263588
  37.9686508  37.6712151  55.2873306  17.3197346  52.4369659  77.1317291
  17.8810482  51.6718979  77.2575226  17.3870068  52.9212837  77.9546204
  86.5304565  55.7662048  25.1730137  86.6814880  55.6044464  24.2417488
  85.6177902  56.0506287  25.2217770  65.9242935  21.1872883  85.0138779
  66.7476044  21.6271172  84.8018570  65.8103180  21.3321762  85.9531555
  63.9361305  56.3350449  75.9449768  64.5562592  56.6977654  76.5775146
  64.2396164  55.4390831  75.7987747  73.3543091  68.9747238  38.7115936
  72.4964676  68.7681122  38.3405800  73.9530563  68.3600540  38.2874222
  75.4362335   3.0573480  65.8215714  75.0863113   3.1355157  64.9340591
  75.5861740   3.9606977  66.1003418  36.1925354  34.2794075  22.0689049
  36.8023071  33.5826149  21.8262234  36.7413025  34.9431686  22.4866486
  81.9710770  69.8457184  52.1657944  81.2550659  69.2469864  51.9535027
  82.7449799  69.2847977  52.2174988  80.1293564  14.0752096  89.1175690
  80.8749390  14.0964546  88.5176620  79.5936813  13.3447866  88.8081055
  49.7907295  39.2558517  23.4087162  49.9352493  40.0512886  22.8962421
  50.2786789  38.5778542  22.9413280  66.1416016   2.1579807  15.1948977
  66.9141312   1.9895488  15.7344036  66.2746353   3.0431662  14.8558102
  73.4918900  52.0364647  18.6918926  74.1321335  52.7383232  18.5748005
  73.8363724  51.5167351  19.4181442  61.5932159  36.7314835  61.7104645
  61.9687195  35.9985199  62.1983109  61.7303352  37.4911880  62.2764015
  73.2044678  19.0064316  25.6419373  72.8623199  19.4550743  26.4151669
  72.5997620  18.2780399  25.5004864  16.5103836  18.9529247  14.7798166
  15.9801340  18.8922653  15.5744162  16.1200714  19.6739712  14.2858753
  24.0696316  39.6724510  77.6266174  23.8821106  39.6320114  78.5643997
  23.7485008  38.8391762  77.2819977  81.9880676  69.1087341  46.9155083
  81.6155853  68.8351288  46.0772781  81.5691299  69.9491959  47.1008415
  44.9001579  37.0156746  82.0806351  44.2678757  37.6783333  82.3587265
  44.6049423  36.7540169  81.2085037  77.5752563  38.5189438  67.0105591
  77.9306335  37.9409218  67.6857071  76.9417572  39.0670433  67.4736862
  48.0998077  63.3852119  25.5929356  47.2574997  63.2206764  25.1690502
  47.8824348  63.5122108  26.5164356  11.0355215  39.0373611  21.1896801
  10.7280788  39.9163628  21.4111900  10.8074894  38.5047722  21.9516392
  45.8642159  46.6313210  68.8110580  45.1675339  46.4941292  69.4529648
  46.2838402  47.4472847  69.0837326  78.1581039  68.8717651  80.4275818
  78.8879623  68.5932846  79.8744202  77.5999985  68.0970917  80.4956360
  77.1604996   8.4871063   1.8795924  76.5789261   9.2357607   2.0119524
  76.6223984   7.8446255   1.4171085  53.9809837  62.0212822  47.0541344
  53.5809364  61.5801926  46.3047104  53.4932213  62.8405800  47.1382065
  84.8467484   5.6695452  48.6632042  84.7697754   5.0792828  47.9136047
  85.2596283   6.4562979  48.3071289  41.1056709  53.9654655  48.0620766
  40.2488899  54.0317726  48.4836884  41.1315155  53.0754242  47.7108040
  67.6441727  37.5549049  45.6632500  67.6237335  37.5326614  44.7065277
  68.4696198  37.9907722  45.8751106  79.0499115   6.8844728   4.9562378
  78.5653000   7.7026033   5.0659962  78.3737335   6.2239499   4.8054733
  68.6539993  28.9943142  25.3769398  69.4980240  28.6455860  25.6637058
  68.2201691  29.2666626  26.1855488   8.5938730  45.9191399  52.9476357
   7.8032756  45.4217911  52.7382774   8.3166962  46.8347282  52.9143410
  78.5900040   6.6850185  88.5533218  78.8492355   7.2359333  89.2919159
  78.8266296   7.1956096  87.7790222  64.1298523  21.8768749  62.1536980
  63.6563377  22.3335686  61.4583931  64.0162888  20.9483299  61.9508705
   5.8647485  42.3044243  52.8152275   5.9524345  41.7715378  53.6055260
   5.4287648  41.7297554  52.1860161  30.4610729  60.7892456  65.9138107
  29.9172764  60.8182716  65.1266174  30.0127468  61.3621941  66.5358810
  74.1655121  40.7899437  82.7343903  74.5348663  39.9709854  83.0647202
  74.2504044  41.4027748  83.4647751  84.1472778  36.7439957  42.5153122
  83.2461014  36.7807388  42.8358841  84.0744934  36.9137306  41.5760956
  11.0051975   7.6148176  17.0360451  11.1095800   8.0964231  17.8566494
  10.5140562   6.8301697  17.2796402  81.1767349  51.2936440  48.7828064
  81.5157471  50.4281845  48.5541611  80.4453659  51.4311066  48.1807785
  43.5332260  35.7288742  84.6065063  43.0790176  35.3733215  83.8426285
  44.4250069  35.8931046  84.2999344  49.8529434  41.0826111  82.8232651
  50.5048981  40.3875046  82.7337265  49.0721512  40.7356987  82.3917084
   7.5945811  52.9785347  14.7383356   8.2875824  53.5885544  14.9910336
   7.2795930  52.6173134  15.5669088  60.0040169  17.5293827  31.6410866
  60.3024864  18.3614635  32.0082245  60.8091011  17.0727425  31.3970585
  71.1408539  11.6266527  88.6066055  71.5622177  11.0501308  87.9691772
  71.8336716  12.2275381  88.8807755  71.4419708  40.5649185  12.5140152
  72.1990814  40.0998077  12.1580839  71.8167725  41.3164291  12.9733524
  76.7613525   6.8829179  58.5352783  76.0139847   6.7473793  57.9527779
  77.2375641   7.6169157  58.1470757  33.5414085  56.0652885  14.3744192
  34.0686798  56.5083809  13.7096758  33.6979256  55.1333122  14.2222366
   5.6402493  14.8618622   6.9818611   4.8527975  15.2750950   6.6277556
   6.3618650  15.3912306   6.6423435  44.5158691  58.9757881  38.1183090
  44.0334625  58.2731972  37.6825562  44.1377106  59.7809601  37.7648544
  22.0210705  13.2958660  77.4714203  22.4444714  14.1442089  77.3399658
  21.0895157  13.4696188  77.3363266  75.5475540   3.6096494  12.4650965
  75.6570892   4.5164342  12.1787806  74.8172073   3.2797620  11.9416504
  50.9559937   2.2761517  10.6385717  51.0238266   2.7979538   9.8389759
  50.0374146   2.0092340  10.6731834  55.8142395  47.0645065  76.9370499
  55.7868004  46.7609520  77.8444290  55.2881241  47.8641510  76.9359970
  41.4483147  24.0697021   5.0588498  41.7341080  23.1691399   4.9054122
  41.2206421  24.0936699   5.9882708  47.1995583  11.9165831  85.1009827
  46.3525658  12.1706543  84.7345352  47.8040428  11.9608622  84.3601303
  12.9228506  50.5686493  56.2127686  12.4227352  50.4852066  55.4008827
  13.4134445  49.7492599  56.2771606  31.4291630  56.0491295  66.9484787
  31.6303997  56.9159622  66.5958710  32.0082855  55.9580040  67.7051468
  32.1167030  61.9349251  68.7462387  32.3073311  61.0783501  69.1285629
  32.1807175  62.5448494  69.4811707  58.4136276  60.9403839  67.9736710
  59.1399231  61.5185165  67.7402420  58.5398750  60.1646309  67.4273148
  30.4155750  52.0007057  61.0074234  30.9940224  51.2981071  61.3040466
  31.0086346  52.7064323  60.7496147  14.8299656  57.9508591  55.6450958
  13.9954605  57.8414497  56.1010132  14.9488792  57.1322556  55.1634521
  76.5281219  68.7952347   4.8150048  77.4803696  68.8557281   4.7388916
  76.2101364  69.6517563   4.5295510  19.2957687  67.6844864  13.1161270
  20.1784534  67.6502228  13.4848108  19.0160904  68.5903549  13.2480688
  42.5420914  18.5493145  85.0268784  42.8736076  17.9853153  84.3281403
  41.7047501  18.8739529  84.6956711  41.6946640  50.1988678  33.6263962
  41.0735664  49.7724571  34.2168541  41.2413826  50.9887848  33.3317795
  58.2659988  52.5607758  73.1036224  57.4010925  52.5179749  72.6957779
  58.2770996  53.4055634  73.5535583  62.9845848  54.6938019  88.0866470
  63.2304077  54.1660728  87.3268433  62.2731018  55.2510262  87.7711716
  78.4024200   6.2898526  22.0965157  77.5685654   6.3235698  22.5653343
  79.0628662   6.4495854  22.7706966  43.2341270  43.3976059  27.9986954
  42.3709564  43.7129555  27.7308750  43.2828712  43.5978851  28.9334393
  74.3974075  42.2563057  85.0122757  74.8935471  43.0699196  85.1023636
  73.5020905  42.5408058  84.8287125  79.2358780   7.4982433  85.6903229
  79.7913284   8.2776890  85.7036209  79.7342529   6.8576140  85.1829300
  59.4928093  46.6382446  83.8858948  59.2443123  47.5625725  83.8757172
  60.3349686  46.6216278  84.3405609  21.9984722  64.3383942  45.7028008
  22.9204693  64.3838043  45.4496384  21.5216064  64.3449936  44.8728676
  21.3899193   2.6438572   7.6026421  22.0518265   3.2874413   7.8554487
  20.5610542   3.0276856   7.8888078  29.9114971  45.1014557  47.1092758
  29.1301956  45.0949898  47.6622276  29.9940815  46.0107841  46.8219910
  84.6797256  54.1701660   6.4595790  84.5470276  54.1467743   7.4072475
  84.4577103  55.0668297   6.2087026  24.8574638  38.0439034  28.0580521
  24.6264381  37.1155777  28.0253162  24.5074635  38.3484421  28.8953037
  61.1958237  19.8352242  86.0933838  60.6774292  20.3543015  86.7082443
  60.5875587  19.6255989  85.3846512  12.3492184  65.4813461  64.0023117
  12.1936607  65.6822510  63.0794525  11.7907667  66.0957413  64.4786301
  69.7163162  10.3077002  13.6074057  70.1668091   9.4745102  13.7455530
  68.8979645  10.2214651  14.0963793  62.3824158  41.5049171  42.6056366
  62.6781845  42.2109604  42.0309601  63.1871109  41.1525269  42.9857903
  35.5702248  40.8909950  27.1929493  36.1430969  41.1641922  27.9094772
  34.7425194  40.6689949  27.6193905  58.6417084  70.6881485  11.8607149
  59.1592827  69.9021454  11.6859312  58.8040352  71.2544785  11.1062927
   0.7686678  42.5369453  27.3083000   1.4803431  42.4484177  26.6743336
   0.8830509  43.4132843  27.6759644  45.4980354  12.9159937  87.7145767
  46.4486313  12.8839855  87.6069946  45.1939812  12.0596733  87.4137421
  33.8302460  26.0698948  78.3989334  33.6222229  25.1369324  78.3485107
  34.1933823  26.2811470  77.5388565  67.7452850  25.7816372  63.7487984
  67.2478104  26.4697590  63.3069344  67.3217163  24.9675236  63.4766884
  71.0600433  21.3038692  53.2896767  71.7632446  21.2268181  52.6448479
  71.4166031  20.9022903  54.0820351  46.8733139  26.9860859  12.6076174
  47.5160942  26.4075050  13.0178719  46.8008690  26.6646156  11.7089291
  41.7521858   0.7679710  85.1051254  42.1547813   0.1675823  85.7325668
  41.4736404   0.2067680  84.3814621  20.1255207  42.8545418  70.7107697
  20.2469521  41.9652023  70.3782654  20.2472363  42.7752228  71.6568832
  30.7695274  66.9515076  15.9944639  30.4031944  67.8264694  15.8661518
  30.0757751  66.3571167  15.7087317  28.1640968  42.5720825  54.1906242
  27.8704433  41.7502823  53.7973785  28.2879410  43.1624413  53.4474106
  66.2893066  23.5909805  57.8468513  65.7939682  22.9037018  57.4012909
  66.5251770  23.2070637  58.6913643  65.0286560  25.2161846  88.8425522
  65.0050125  26.1692619  88.7570267  64.5387039  24.8955326  88.0853424
  10.5612469  41.3930931  33.7211876  11.4595652  41.5191307  34.0267525
  10.0808516  42.1419220  34.0743217  47.1293716  43.1786804  80.0073853
  47.2812805  43.3082314  79.0712357  47.9911079  42.9595032  80.3617859
  75.4313889  55.5425301  68.6114197  75.7813568  55.7076149  67.7359238
  75.8461685  54.7243347  68.8848114  83.4257736  29.8906116   0.5999871
  82.5572662  30.1672764   0.8922110  83.7514648  30.6286163   0.0847211
  11.7997160  31.9631023   7.3258142  11.5968170  31.1766891   6.8192372
  12.7540503  31.9607544   7.3997879  17.1617470  62.0714798  77.0819016
  17.3829060  61.4306755  76.4061127  17.6192150  61.7624779  77.8638687
  41.8058281  68.2798386  58.3016014  41.1899605  68.0999374  57.5912704
  41.4148903  67.8622360  59.0690689  33.4312439  25.4066677  75.5206909
  32.6773415  25.0101337  75.9572906  34.0928993  24.7150536  75.5099564
  65.5239029  31.4380817  50.0809021  65.9601364  31.3989964  49.2297859
  65.0966721  30.5862026  50.1704140  80.2979660  67.2405930  36.4114571
  80.1471405  66.3220062  36.6343460  79.7474594  67.3942566  35.6436310
  45.1499214  49.6009979  16.7010994  44.8205681  48.8914795  16.1494274
  44.4282837  50.2286415  16.7402706  70.2880173  71.0661011  81.3268814
  71.1920776  70.9186249  81.6046524  69.9759064  70.2019272  81.0585175
  17.6891842  46.4211578  62.6606522  17.0788841  46.8536987  63.2578697
  17.6416721  45.4952736  62.8987999  29.6168022  67.2760849  79.8968506
  29.0509548  68.0354004  80.0364151  30.4586735  67.5322876  80.2734680
  57.0191536  64.1797485  74.1100998  57.2556000  63.7303238  74.9214859
  56.5689163  64.9736862  74.3985062  70.8244781  12.7315168  54.9502449
  71.0812531  11.8119020  55.0181389  70.2082367  12.7547016  54.2181702
  51.3606186  14.9766655  59.8800583  50.9079399  15.4532404  59.1842194
  52.2646561  15.2879229  59.8345871  52.2971153  49.0697403  71.9210968
  51.4417076  48.8718567  72.3023453  52.4466324  49.9910431  72.1334152
  50.0494385   4.5481558  22.6183815  50.4756889   4.4879398  21.7634449
  50.6671906   5.0394044  23.1599407  85.4484787   9.3629189  13.0468655
  85.0788879  10.1774988  12.7061367  85.8758621   9.6174574  13.8646584
  79.5932999  57.5045547  79.0904236  78.9766769  56.7901955  78.9301071
  80.2998657  57.3566551  78.4618301  42.5049515  56.0996971  47.2545624
  41.9857178  55.4405785  47.7152023  43.2317123  55.6078453  46.8722839
  21.0473480  35.5894890  12.7931337  20.1794529  35.9577332  12.6276379
  21.5881004  35.9187355  12.0752087  53.7339897  55.7209167  62.0119820
  53.0163994  55.1385307  62.2612190  53.8979912  55.5183334  61.0909500
  36.1244087   9.5830421  80.0987396  36.9161301  10.0277586  79.7960205
  36.1885147   8.7021780  79.7296829   2.6195645   7.1068501  79.4570007
   2.4161835   6.4556537  78.7855759   3.5329864   6.9365268  79.6869583
  54.2500610  65.7138748  72.5966873  53.6618423  65.0027466  72.3426666
  54.4643250  65.5321655  73.5117340  46.1610947  15.6349010  46.0518723
  45.7688065  15.3818636  46.8875237  45.6595421  16.4014301  45.7741814
  15.9086390  18.9582310  84.4977264  15.0484381  18.6262856  84.7548218
  16.5190811  18.2682552  84.7575836  83.0986404  71.0426788  84.0981293
  84.0117798  71.1846161  83.8486099  83.1075363  70.2148438  84.5785904
  71.4798965  46.4988708  66.9472885  71.1982040  45.9899025  66.1871414
  72.1676331  47.0727539  66.6097794  10.2501574  40.5144653  51.1399307
   9.7572517  39.9248924  51.7106171   9.5800962  41.0373344  50.6996384
  29.5514851  23.2525864   4.3697953  29.0223827  23.9778214   4.7019334
  30.3509445  23.2789459   4.8955321  36.4865532  60.7738419  81.5542908
  35.7765884  60.1343193  81.6107559  37.2035103  60.2992554  81.1336060
  41.0315247  70.3866425   7.2735844  40.6561356  71.1511459   7.7104473
  41.7796555  70.1426849   7.8185773  12.4068708  22.3215351  76.7850342
  11.5609608  22.6541042  76.4849243  12.2437048  21.4004860  76.9882050
  48.8635445  63.7914047  80.7761383  48.3580704  63.2700043  80.1525421
  48.3056183  64.5458679  80.9652023  80.0503693  62.2164726  81.2230225
  79.5647049  61.5449028  80.7441025  79.7314529  63.0445061  80.8640137
  77.9721069  10.8620625  64.4102936  78.7763596  11.3601904  64.2644348
  77.3652115  11.4943638  64.7951431  17.1066933  18.0854740  73.5127106
  16.9891968  18.5385036  72.6777267  18.0511169  17.9436722  73.5774460
  11.3652821  40.4371490   1.7323676  10.9695768  39.5998917   1.4901938
  11.7831059  40.7460251   0.9284703  67.0729141  54.5177727  45.6221924
  67.5841064  54.4915314  46.4310379  66.2689590  54.9787216  45.8618050
  60.6440506  38.9774742  15.2465982  60.2775993  38.1010094  15.3638620
  61.3076363  38.8704262  14.5651064  73.7953491  66.0004959  69.7875061
  72.9558258  65.5956192  70.0054703  74.1145325  66.3522873  70.6185226
  38.2502861  29.3158722   1.0732700  37.7173004  28.8363609   0.4390557
  37.7123985  29.3453522   1.8644990  39.4932556  47.1986732  89.3628845
  40.4328461  47.0417442  89.4565430  39.3647385  47.3294220  88.4234085
  80.1529922   4.7863922  70.2258911  79.9589005   4.5035787  69.3322601
  80.3183136   5.7260785  70.1491470  56.2459602  19.3823814  74.9967957
  56.3490067  18.8185978  75.7634506  55.6773300  20.0918903  75.2959442
  73.2164841  24.9351330  20.6373672  73.7323456  24.3379898  20.0955753
  73.0375671  24.4394779  21.4364605  67.4309540  48.3461266  84.2061005
  67.8968048  47.8322182  84.8657303  66.8235168  47.7252846  83.8038483
  26.6285610  21.6407948   5.1531186  27.1607704  21.1191025   4.5524354
  27.0393906  21.5145741   6.0084066  36.8920288  49.5502777   5.4799151
  36.8651428  49.8757057   4.5801334  36.1628532  49.9911880   5.9159636
  77.0007324  54.9077988  29.6338425  76.0581284  54.9876251  29.4877052
  77.2783508  55.7866974  29.8921013  12.4154205  67.0089569  86.2009506
  11.4896441  67.2247238  86.0886307  12.5135164  66.8565750  87.1408386
  65.9991226   6.1068883  49.1269913  65.7235718   7.0066981  48.9519348
  65.8993378   6.0057068  50.0735855  35.4913902  -0.0168545  76.3074188
  35.4528351   0.7838247  75.7842941  34.6430779  -0.0554453  76.7491302
  85.4873581  70.7528915  79.5893021  85.9399185  70.2953644  78.8807144
  84.5804901  70.8198547  79.2904129  64.9551849  31.7469006  83.2529373
  64.5572052  30.8765965  83.2325897  65.8252411  31.6037521  83.6254196
  49.7464447  45.9948616  70.8281784  50.2699127  45.4166145  70.2733459
  49.7219543  46.8253059  70.3527908  85.9776382  24.8666668  79.4894791
  86.2958984  24.1468315  78.9447021  86.7679901  25.3450737  79.7398987
  67.9943314  32.5573959  13.8684568  67.6152649  33.4264565  13.9999113
  67.8257370  32.0958061  14.6898851  44.2016029  40.4963875  71.7266464
  44.5202637  40.6057854  70.8307037  43.2495270  40.5610962  71.6518097
  71.5251312  55.9368324  39.5648766  71.1575851  56.3925743  38.8076172
  72.4330063  55.7584114  39.3195992  28.3925076  71.1066437  67.6707535
  28.1121082  70.5839996  68.4220505  27.7431431  70.9193039  66.9929123
  83.3818436  48.9602585  86.0255966  82.6875992  48.3518295  85.7724686
  82.9540634  49.5788498  86.6176910  72.8215256  46.4311867  31.8436089
  71.9635620  46.0110283  31.9035511  73.4459000  45.7265358  32.0164108
  45.4238548  15.9099150  58.4688454  45.1585617  16.7033901  58.0038185
  44.5999680  15.4803915  58.6989708  45.9345360  12.2494240  34.6811867
  45.4568710  11.5636940  35.1479225  45.8133888  12.0380840  33.7555046
  49.8369865  10.5539265  59.2864380  49.6340294  11.4750376  59.4495239
  50.7400246  10.5601931  58.9690857   4.7280130  58.9103394  54.7225189
   5.4951749  58.8357162  54.1549568   4.1716700  58.1730118  54.4714050
   4.0803189  10.2631512  88.4572296   3.4326189   9.6316357  88.1443329
   4.8852282  10.0297966  87.9947433  37.8555450   4.0294971  87.1209869
  38.8088608   3.9506567  87.0863037  37.6976776   4.9610586  87.2742920
  77.0398865  66.7745667  53.8792229  76.6663895  66.0180740  54.3313751
  77.9689484  66.7561951  54.1088791  35.6717339  43.6776428  22.2966080
  36.4196701  43.3833771  22.8164444  34.9073372  43.4448586  22.8236198
  61.2305717   5.8357639  59.4792328  60.5227890   6.0285516  60.0941353
  60.9526024   6.2429504  58.6587677  26.9907150  45.9960747  45.3667297
  27.1088123  45.6318550  46.2440147  26.1181755  45.7048607  45.1019592
  67.7878723  29.4782066  64.5488586  67.2632446  29.0101452  63.8993073
  67.1888809  30.1272240  64.9179306  63.5079498  45.9400558  32.3137093
  63.6811371  46.3789291  31.4808636  62.5868568  45.6846504  32.2628555
  35.0765419  48.1540260  32.7189064  35.9010201  47.7442741  32.9807625
  35.1587677  49.0631218  33.0070305  78.5386047  44.3242531   4.7834253
  78.8520813  43.8628082   4.0055871  78.4267883  45.2302856   4.4956102
  30.4360790  61.7588959  44.4747772  29.8369293  61.3019447  45.0650673
  29.8855705  62.0366707  43.7426491  50.8229561  67.2947998  87.6130371
  49.8770065  67.2325668  87.7454529  51.1468430  67.7316513  88.4007492
  37.8158798  11.7225485  72.8438263  36.9806862  12.0936651  72.5592957
  37.6948814  10.7758999  72.7700119  34.0599594  62.4971695  11.9817247
  33.9196129  61.7100105  12.5079527  34.9974213  62.4920425  11.7884083
  29.5766487  54.3512993   0.4734406  29.1171551  54.9927063  -0.0684964
  30.3444519  54.1072159  -0.0434076  55.8383293  18.2515602  25.8394871
  55.2886505  18.4301643  25.0764771  56.3105659  19.0701885  25.9913750
  64.0020599  59.5786781  80.6067429  64.8375473  60.0003242  80.4057236
  63.9097328  58.8994064  79.9386902   0.1590165  17.1090565  87.7572250
   0.9723806  17.0118103  88.2524185  -0.2602552  17.8822994  88.1347656
   4.8120022  33.7189941   7.9254189   4.2634106  33.8210373   8.7031498
   4.1924329  33.5485458   7.2159734  39.6394691  23.8035698   8.1685467
  40.1008568  24.6420822   8.1527052  39.0088348  23.8906651   8.8833504
   0.5349771  29.9467812  12.8325548  -0.3477317  29.8446331  12.4767141
   0.9980644  29.1563797  12.5549803  38.2353439  62.6818581  33.0162315
  39.1777611  62.5258331  33.0773888  37.8598633  62.1617622  33.7266884
  37.7278900  42.5581360   5.2233996  37.9483185  43.3521461   5.7104197
  37.3416786  42.8769608   4.4076648  57.8316193   1.4807774  63.0372658
  57.1836128   0.8065919  63.2416954  58.6599045   1.0052974  62.9732399
  52.0711594  41.4382133  69.3467178  51.8219986  40.7253036  69.9348602
  51.9511147  41.0771484  68.4683914  45.2142906  29.4764652  38.5497284
  44.6532402  29.4783726  39.3252602  45.5784149  28.5917358  38.5197105
  68.6164322  64.0321198  43.5317726  68.5941162  63.0796356  43.6240578
  69.5396957  64.2368393  43.3837700  41.1876068  40.2921906  15.4875517
  41.7871208  40.1993599  14.7471485  40.7421494  39.4467430  15.5424995
  28.5886917  40.8920670  29.4894695  29.1532669  40.1545563  29.2580318
  28.8459663  41.5892105  28.8861141  13.9979677  41.1636658  30.4127483
  13.9070501  42.0924873  30.2000103  14.2990799  40.7598839  29.5987930
  11.2136974  37.7158165  35.9011345  10.4080915  37.3100510  35.5808411
  11.9125910  37.2737007  35.4191437  60.4082947  12.1654234  25.4017849
  60.2333069  12.6531315  24.5969543  60.1341209  12.7555056  26.1038284
  23.6737556  43.7763214  51.2941589  22.9532166  43.1504364  51.3671150
  24.4009590  43.3592987  51.7562180  83.3849640  48.1218224   9.6592026
  82.9472198  47.2824898   9.5173168  83.0912704  48.4015770  10.5262175
  41.9098206  43.2224121  18.6628895  41.8401871  42.2751808  18.5439835
  41.0651703  43.4801826  19.0321503  64.5643005  27.4557266  32.8837509
  65.2212830  26.7944241  32.6663094  65.0628662  28.2677288  32.9749565
  58.5768051  11.4157495  72.0460968  58.9397545  11.0316296  72.8441925
  59.3418770  11.6121550  71.5054321  23.6632900  60.6713104  37.4188194
  23.6378975  59.7629013  37.7194519  23.7624016  60.6065674  36.4689713
  19.0157070  43.8640709  26.5175686  18.5518684  44.6845665  26.3506298
  19.4701977  44.0103760  27.3471851  42.4390488  47.7812042   8.5664377
  41.9521790  48.4855804   8.1385975  43.2655716  48.1864319   8.8288889
  66.1008224  41.5671577  34.4926758  65.2667770  41.2882347  34.1147766
  66.0685654  42.5234070  34.4647408  16.6931953  47.2076988  37.6045990
  17.0907459  48.0268669  37.3093910  16.9178505  47.1535492  38.5334854
  50.6504784  52.2209854  50.4264984  51.2957535  52.6147652  51.0136871
  51.0595512  52.2577057  49.5618935  46.3004036  32.1667480  37.8226204
  45.9423447  31.2919865  37.9736786  45.6262245  32.7615242  38.1511765
  54.7319603  64.1185608  19.2827168  55.2595024  64.8838120  19.0539818
  54.8056183  64.0527725  20.2348080  65.9952011  60.3439980  87.1605225
  65.0886765  60.3449821  86.8532104  65.9863129  59.7760162  87.9309464
  40.9679718  60.4777412  18.5221748  40.4781342  60.6566963  19.3248367
  40.9613686  61.3087807  18.0472393  14.4237385  64.5223312  44.9753914
  14.4217367  63.5661621  45.0197144  14.8891640  64.7234955  44.1635170
  46.8502693  56.9302864  35.1294518  46.0123177  57.3864174  35.2070084
  46.8199463  56.5188179  34.2657394  73.1884995   6.1622458  46.4907417
  72.6219406   5.5592899  46.9720764  72.9725189   7.0259910  46.8422089
  81.1979370  53.8247910   1.6355222  80.5390091  54.5177689   1.6782290
  81.7732544  53.9950485   2.3813465  41.0730858  60.3995781  63.1001167
  40.4209175  60.2231293  62.4220505  41.8084106  60.7914696  62.6290016
  10.8149605   3.9162350   3.2564070  10.2684212   3.1310320   3.2250550
  11.6607580   3.6333756   2.9087734  34.8976746  49.8526001  76.8906097
  34.5373650  49.0447235  77.2563248  35.2702560  49.5892868  76.0491333
  58.1570168  10.3427305  18.7299862  58.8137741  10.4235229  18.0383415
  57.9858360  11.2437067  19.0041561  36.3786049  23.0669117  68.0106583
  36.4033890  23.3851910  68.9130554  35.5359344  23.3701820  67.6727829
  22.3405933  36.2886848  70.8355484  23.1105728  36.4865875  71.3686523
  22.4747868  36.7842789  70.0277023  64.7766113  35.3938484  46.1774597
  64.6546555  36.1059914  46.8053207  65.6918411  35.1345901  46.2841492
  17.3313179  55.3352585  46.0777435  16.9333076  54.6238327  45.5760574
  16.9122849  56.1280594  45.7429123  45.8268623  47.3699112  10.1380720
  45.3542747  48.0922165   9.7243490  45.3624077  46.5839043   9.8504877
  70.4928818  21.4806633   2.8550961  70.4784164  20.6241074   2.4280872
  70.6114120  21.2831554   3.7841673  74.9334183  34.6242523  38.7372818
  75.6868744  34.0474281  38.6115494  74.2095261  34.1701546  38.3059921
  71.6685410  26.1538010  67.2048798  71.8901901  25.2873249  66.8638229
  71.5888443  26.7045574  66.4260712  80.2834930  32.6973610   7.9065781
  80.6856842  32.1495895   8.5806818  80.8595428  32.6049881   7.1477222
  55.7578430  25.5722122  65.0770645  56.4377251  26.0340405  64.5864487
  55.7713127  25.9772167  65.9442596  74.9021378  64.8247299  86.9325714
  75.5609207  64.8054199  86.2384109  74.1302567  65.2118225  86.5195389
  86.5241165  48.2117081  83.0664139  85.8464661  47.5361366  83.0913773
  86.8508835  48.1900597  82.1669846  16.2184448  54.1395035  79.4095459
  16.5759277  54.8738403  79.9087372  15.2875223  54.1292305  79.6320496
  48.7189522   0.3699185   0.9118903  49.6303787   0.6349252   1.0356071
  48.2131729   1.1642941   1.0833080  53.3557930  23.8932972  78.1297150
  52.7503242  24.5698948  78.4327927  54.2225227  24.2250957  78.3640594
  68.4988556  11.8907795  34.6153412  67.7304382  12.4580631  34.5524330
  68.6525345  11.7990894  35.5556641  57.1499786  60.8774414   7.4634356
  56.4800034  60.9861755   6.7884984  56.7700424  61.2788734   8.2449284
  39.0186043  37.5836029  81.9994659  38.1086807  37.5509186  81.7041702
  39.3788223  38.3646545  81.5794220  64.1591721  67.9974213  38.0228729
  64.9649048  68.4796524  38.2085724  63.5243683  68.6737137  37.7864494
  62.3343887  15.9754820  31.3887005  62.1704330  15.1127844  31.7696228
  63.1477432  15.8688498  30.8954296  77.1724625  38.0423050  70.8296127
  77.8846130  38.3361931  71.3976746  76.8516617  38.8427238  70.4141006
  77.2558212  30.3646870  11.5802536  76.8360062  31.2172527  11.4657230
  76.7531738  29.9417973  12.2764854  70.8855515  50.2868233  39.5636673
  70.8547058  49.3456650  39.7354126  70.8096848  50.3592873  38.6122360
  18.2251453  47.4101028  46.5461769  17.9074001  47.0477753  47.3732147
  18.5467701  46.6509171  46.0599365  55.0654373   4.6124821  56.4320755
  55.0026932   3.7981794  55.9328728  55.6390266   4.3986955  57.1679611
  45.4206161  20.2688618   8.9275179  45.4692497  20.9896584   8.2995682
  45.5406685  20.6859474   9.7806635  33.6893501  71.4069519  14.6580353
  34.5790901  71.6155014  14.3732500  33.6611633  70.4503098  14.6744452
  35.2328491  40.2908783  69.0772095  35.4504051  40.4716187  69.9916687
  34.4002304  39.8204002  69.1175766  72.2171097  58.7255974  85.7348404
  71.3547363  59.0813713  85.9492416  72.1091843  58.3448029  84.8633041
  42.1742439  41.4908714  21.8543301  41.9938011  40.6282845  22.2279816
  41.3100243  41.8819580  21.7262535  69.7622299  18.3558178   1.6734869
  70.2127228  18.8268375   0.9724652  70.3445358  18.4364452   2.4289000
  33.5734634  48.1336937  43.3949890  34.1785660  48.0148888  42.6628914
  33.1018143  48.9403458  43.1874046   1.9017159  12.5222778  20.7592716
   1.6367881  12.3334551  21.6594887   1.9524535  13.4773188  20.7198524
  85.8748169  67.1986694  78.3969803  86.2615891  67.9833603  78.0085373
  86.6148376  66.7368240  78.7910614  24.1642475  29.4918022  87.6698837
  24.1244125  30.4463921  87.7282257  25.0507202  29.2711582  87.9557419
  24.0139732  24.0070667  67.6586685  23.5932159  23.5258560  66.9461899
  24.3388882  24.8080940  67.2475510  51.3897743  21.4650917   5.5201983
  51.5447693  22.3016243   5.9588571  51.8889389  20.8295498   6.0331798
  74.9942856  22.1962605  11.7574549  75.8798981  21.9942684  11.4556103
  75.1193161  22.8463993  12.4487724  36.7408447  22.7000256  44.2247429
  37.4986382  22.6130466  43.6464577  36.7619629  21.9118080  44.7674217
  84.3697968  45.8336182  24.4984226  84.7490616  46.2256775  25.2849827
  84.3668900  46.5423698  23.8550758  23.7283344  35.8802223  78.6956406
  22.8162708  35.7054749  78.4636154  24.2283401  35.6007195  77.9287567
  86.8056946   8.5478554  77.6127853  86.0271530   8.9156303  77.1946487
  86.7314377   7.6043606  77.4694824  30.0322685  49.4940338  49.5020332
  30.6146870  49.2761154  48.7743416  30.5888348  49.4394760  50.2788811
  51.3881302  14.0629559  80.0864487  50.7123451  14.1346455  79.4123535
  52.0319710  13.4587307  79.7168350  16.4186478  20.3709888  21.0602665
  16.1949005  19.6299419  20.4972229  16.9980431  20.9125996  20.5243645
  70.3209229  36.9238815  75.8125381  69.7127533  36.7025070  75.1072998
  70.8397293  37.6482964  75.4628296  40.4752769  62.6194000  36.0225868
  40.0075836  62.4191704  36.8333931  41.3784599  62.3534813  36.1951447
  30.4826145  61.0645981   3.4113863  31.2752666  60.5280914   3.4210308
  30.7938118  61.9546509   3.5762956  27.7930927  42.7549286  85.3855362
  27.9767475  41.8750763  85.7147217  27.5023804  42.6175117  84.4839630
   5.6130791  67.1132431  86.6151581   6.0682964  66.4496841  87.1335144
   5.0727501  67.5838547  87.2498245  72.8484116  65.7923584   7.0964541
  73.6252289  66.3411331   6.9885688  73.1146393  65.1212997   7.7249722
   3.3451006  51.6929588  83.1740265   3.3912585  51.5494995  82.2287598
   3.3237197  50.8125763  83.5491257  11.8544531   4.5265937  69.1496811
  12.0505743   4.7336097  70.0634155  12.6932764   4.2487812  68.7816772
  84.3966370  24.1321945  44.3942299  84.0436325  23.2809811  44.1352921
  83.7506714  24.7649384  44.0802383  70.8329086  59.8186150  58.3701134
  71.0684738  59.7051926  57.4493103  71.1960754  60.6720123  58.6068802
  55.6814117  53.1168861  27.4357376  54.7438965  53.2558708  27.3016510
  56.0193825  53.9794464  27.6765633  29.9235687  24.5136108  82.2956467
  29.5138283  23.6623898  82.1414871  30.3862801  24.4096317  83.1270981
  15.3361988  24.7370110  20.4900970  14.4312115  24.5986481  20.7695351
  15.8330956  24.7924118  21.3063431  78.1077194  37.3459778  77.3164368
  77.3010025  37.8609619  77.3010483  77.8948135  36.5833511  77.8543015
  69.6752014   9.0191698  21.9578419  68.7185440   8.9900045  21.9440727
  69.9053497   9.6519585  21.2775173  16.7750988  18.4878674   3.0501709
  17.1205196  18.1466064   2.2252724  17.5529652  18.7043819   3.5642509
  41.9301262  50.7354240  56.7919350  41.3954964  51.5240593  56.8838921
  41.3063202  50.0496101  56.5536995  44.8272133   4.4866824  82.8217926
  45.0145111   3.9849842  82.0284119  44.8563004   3.8397751  83.5267029
  49.9418106  23.6465836  25.4930344  50.2035866  23.4799709  26.3985424
  49.0359192  23.3410778  25.4455242  17.2137699  54.8701019  75.3515625
  17.3681774  55.6220398  75.9233856  17.6759777  54.1473961  75.7761688
  10.4844656  60.7832680  22.2537937  11.3955030  61.0748215  22.2890167
  10.4238901  60.2846489  21.4389687  49.4258080  58.1434288  87.3849640
  49.4651642  58.9844246  86.9295425  48.5012245  58.0346184  87.6075363
   7.0965009  33.5133286  87.1318512   6.4078088  32.9169197  86.8381958
   6.9808016  34.2963524  86.5935974   7.3578691  12.7789221   6.0470586
   6.6182237  13.3807974   5.9639773   7.7106376  12.9520111   6.9198856
  23.3232517  36.0921707  10.4820328  24.1952534  35.8579712  10.1642342
  22.8181419  36.2676926   9.6881266  67.4647675   7.0269389  75.6803207
  67.0659637   7.6529627  75.0759354  68.3847656   7.2877722  75.7227631
  21.5665092  42.2314186  57.4588280  21.6345577  43.1738548  57.6118355
  20.7522354  42.1268578  56.9666290  32.1240883  39.7095184  69.5020676
  31.7082214  40.5446243  69.7162704  32.3069801  39.3081665  70.3516006
  73.7711334   9.7319651  31.1268749  73.2714539   9.7822495  31.9417515
  74.6817017   9.8520136  31.3964787  18.9422646  41.0167084   3.2083392
  19.8007221  41.3738098   3.4358447  18.9554443  40.9513588   2.2534635
   7.1332321  57.4413567  15.6091375   7.1738391  56.8223763  14.8801317
   6.3005362  57.2492485  16.0403500  11.6992664   4.1205282  65.1785355
  11.6577234   4.9856310  64.7709808  12.4845362   3.7183318  64.8072968
  67.3902969   3.0177095  39.8762817  66.5957260   2.7966006  39.3904877
  67.9274063   2.2267780  39.8296967  86.0443115  69.8320770  68.4221268
  85.7821198  70.6687698  68.0381699  86.8354568  69.5860138  67.9427719
  72.0835037  23.0214405  73.6070633  71.3929520  23.5307961  73.1828842
  71.6212463  22.3000393  74.0338287  48.6271286  27.2866554  77.6902542
  48.8167953  27.8573723  78.4349289  47.6746941  27.1915951  77.6978226
   2.7748156  52.9941788  23.5345287   3.2157092  53.7502861  23.1470413
   2.4760153  53.3034515  24.3896904   0.4694806  37.8950462  44.4216347
   1.2453976  38.2489395  44.8563118  -0.2528812  38.4330521  44.7456360
  28.9307766  66.7586136  57.3226738  29.2399349  66.1156921  56.6844673
  29.2477074  67.5981827  56.9896507   7.0380988  44.0036278  43.0293655
   6.2257857  44.1920128  43.4993553   6.7644329  43.4727554  42.2813606
  28.2122402  43.1605034  25.6953449  27.4596195  42.7731628  26.1422920
  27.8279953  43.7443390  25.0413399  19.5524864  22.1195736  62.9340935
  19.8888760  22.6437550  63.6609459  20.3243961  21.9227142  62.4034042
  75.2026749  33.4802742  17.2902737  74.7002945  32.8447838  17.8001728
  76.1057129  33.3641663  17.5856743  13.9131012  54.0744820  59.0852203
  13.7323885  53.5028152  59.8313942  13.2346792  54.7482643  59.1298676
  57.4006233  44.8026772  22.8094063  57.5387840  45.7449036  22.9061031
  57.2631378  44.6758575  21.8706589  63.9882431  67.7466583  47.5668335
  63.2648163  67.4903641  48.1388474  64.6934052  67.9897156  48.1667519
  81.2072830  62.3146133  42.2571373  80.9568329  62.6511269  43.1175232
  81.3527908  61.3792152  42.3988800  23.6627731  45.5296669  33.7142906
  22.7704182  45.8692589  33.6463737  23.7194881  45.1815605  34.6041412
   6.3399768  64.5569458  77.0141602   6.7675910  64.2407150  76.2183151
   7.0617070  64.8157578  77.5871811  22.8477345  53.6770248  88.0780182
  22.8353977  54.1038933  87.2213593  23.3736935  54.2580414  88.6275864
  81.2452927  61.5175095  65.8802261  81.6151276  60.8838730  66.4950104
  80.4328995  61.1116409  65.5776978  42.0483131  33.4237213  70.8998413
  41.2130432  33.1183662  70.5458450  42.5228386  33.7585754  70.1389694
  41.4689293  38.7002449  64.8451309  40.8071899  38.5703125  65.5244293
  42.1927834  39.1350327  65.2959442  42.5766563  55.9473190  84.7940903
  43.3187561  56.3718185  84.3635941  42.2961693  55.2716293  84.1768341
  72.5550308  62.6898537  75.2438889  73.4382782  63.0554962  75.2930222
  72.0345154  63.3762817  74.8266220  21.2258148  53.1430283  78.1525269
  22.1182480  53.1317329  78.4984589  21.1732502  52.3632126  77.5999298
  69.6313248  53.5013351  21.5304699  70.0762024  53.5502014  22.3765965
  69.8426743  54.3300209  21.1005344   1.0983434  55.9547386   6.9505501
   2.0231614  56.1996002   6.9819565   1.0278224  55.3828354   6.1862302
  21.0308475  51.9095726  20.8749847  21.6953278  51.7868500  20.1970196
  20.1989136  51.7669029  20.4235840  10.6843910  66.8614502  10.6022444
  10.3025885  66.5911331   9.7671490  10.1645546  67.6196289  10.8690214
  74.3452759  31.6044445  39.7059174  74.5717010  32.0627480  40.5151901
  75.0783081  31.7825089  39.1166916  56.3865204  47.7881432  56.6590195
  56.2018471  47.2387238  55.8972664  55.8157501  48.5487442  56.5497704
  27.2854347  58.7805214  62.0061378  26.6798973  58.0770874  62.2401085
  27.3953438  58.6967812  61.0589638  50.4203796  39.7614937  38.6378212
  49.9263535  38.9927864  38.9228783  50.5881538  40.2506180  39.4433289
  82.6259537  56.7924232  56.1053581  81.9255981  57.3863907  56.3754272
  83.1809921  57.3214302  55.5323677  48.2552948  11.9336090   7.3650846
  48.3192749  12.8874302   7.3164725  47.8384094  11.6792555   6.5418339
  58.8060722  29.2944984  40.6993828  59.5136261  28.7549267  40.3465919
  58.3472710  29.6232319  39.9262924  49.5454102   0.3664147  23.2939167
  50.4445953   0.0432701  23.3511372  49.3574142   0.7075827  24.1682701
   8.7006702  50.0927696  62.1852989   8.0752583  49.3681412  62.1828079
   8.7754917  50.3414116  63.1066093  75.9677429  53.2101669  18.9159832
  76.3782730  52.6502304  19.5748959  76.3473206  54.0757904  19.0671482
  84.3513718  40.2543716  42.4106483  84.0682755  41.0642700  42.8350983
  85.3024597  40.3389511  42.3434792  21.3564987   2.3832655  65.2560425
  22.1708202   1.9249667  65.4635925  21.6315155   3.1335196  64.7290573
   1.8741819   4.2493987  45.4575386   1.2561359   3.5838351  45.1554184
   2.3771338   3.8143063  46.1459885  44.1729164  33.2690048  85.8270798
  43.2217789  33.3301048  85.9155807  44.4209442  34.0632362  85.3538818
  80.3750763  62.4943237   6.8123655  79.6007462  62.9994316   6.5643735
  80.6707230  62.0925674   5.9954095   5.5178218  27.1523724  60.2382622
   5.2646866  26.5835171  60.9652824   6.2424011  26.6919289  59.8149338
  27.1285267  69.6772232  18.6677647  26.4174404  69.9918365  18.1095505
  27.8908920  69.6460953  18.0897827  79.6518173  24.7485542  83.3106842
  78.8772888  24.5719051  83.8446655  80.3879089  24.6382999  83.9125519
  32.0550385  35.0987358  66.4592590  31.2910042  34.6585732  66.0867767
  32.2789421  35.7734070  65.8182373  79.6541367  30.0149689  44.0230865
  79.9333115  29.1711063  44.3783112  79.5388107  29.8542595  43.0865479
  17.8244591  51.8437271   7.2116818  18.6903000  51.4731865   7.0406575
  17.9545135  52.7905960   7.1591516  72.8862457  66.4731827  72.9000702
  73.4890976  65.9525986  73.4309158  73.0301895  67.3744507  73.1885681
  82.9540100  53.9692001  67.4896011  82.7549438  53.0584641  67.7067795
  83.1999741  53.9466400  66.5648193  85.0252914  18.2784710  36.0958481
  84.7699814  17.3865108  35.8603668  84.2453308  18.8049908  35.9207230
  46.8032074   8.4797335  51.4009476  46.0961800   9.0365343  51.7270164
  46.6446724   7.6281524  51.8082657  49.3483429   1.8719987  58.4951553
  49.7031937   1.2035809  57.9090385  49.7194290   1.6607889  59.3518448
  80.2778854  34.7973518  38.5427628  79.9698486  34.4146881  37.7212334
  79.9270706  35.6879387  38.5385361  34.5149422  37.2883720  77.6950150
  34.3318596  36.5715370  77.0876770  33.8580627  37.1917953  78.3845139
  35.0952797  71.1597061  54.3646317  34.7803764  72.0635605  54.3538589
  34.3353539  70.6382217  54.1061707  69.3007889  23.6218376  54.0377502
  70.0574570  23.1741447  53.6592598  68.9444199  22.9973869  54.6696472
  78.6139069  63.7686653  83.6573334  78.8884506  64.6856384  83.6529160
  79.2470093  63.3263741  83.0918274  38.5440865  33.3481750  20.7359638
  39.2841606  33.4295578  20.1343822  38.9354744  33.0553093  21.5589314
  84.7939682  20.3570633  81.2967072  84.5825806  21.2676525  81.5025558
  84.0011597  20.0145550  80.8839417  79.4579620  20.8366795  81.6785049
  79.0575485  20.2733402  81.0162735  79.7004852  21.6308956  81.2024460
  14.2373543  22.8202782   0.4328714  14.9160461  23.3738079   0.8191552
  14.6870975  22.3396282  -0.2620660  77.0255814  69.7620773  18.0754166
  77.6090622  69.0285339  17.8812485  77.3997726  70.1648483  18.8589935
  86.0307999  50.5860863  14.6069689  85.2407837  50.1254234  14.3242970
  85.7272491  51.1865768  15.2877760  10.5887632  42.8353691  65.3466263
   9.9367828  42.2243309  65.6898270  10.1770935  43.2133408  64.5695190
  79.1250000  51.0338440  34.1465874  78.5461273  50.2723885  34.1828957
  78.5653839  51.7455482  33.8358727  53.4418793   0.6114426  42.7732010
  53.5450859   1.5172273  43.0649796  54.1516991   0.1377767  43.2068214
  80.2773895  35.2780266   8.5053291  80.0832596  35.5408478   7.6056237
  80.5579453  34.3657188   8.4331064   6.5966654  57.5569420  40.0891418
   6.7216763  58.2976990  40.6823425   7.3871179  57.5462646  39.5494194
  77.7357025  47.1136246   5.5055370  76.7896423  47.2294769   5.5937386
  78.0124893  47.8299866   4.9341841  56.2564621  27.3515644  52.7352142
  56.7787552  28.0029697  52.2671242  55.5542068  27.1246510  52.1256409
  10.0061665  65.9901352  47.1949883   9.2705154  66.2643814  47.7425613
   9.7301731  66.1967468  46.3020325  53.9449158  37.6144638  29.8832417
  53.8261566  38.5193100  30.1720047  54.7309113  37.3178482  30.3420010
   3.4160800  48.5958748  15.1508360   2.7765706  48.7599945  14.4577808
   4.2640262  48.6350327  14.7084723  32.4968948  13.5110083  16.2006149
  33.0351067  14.1167345  15.6910515  32.5845795  13.8146791  17.1041241
  26.3840923  46.6697617  87.3336639  26.9120483  47.4477501  87.1541367
  27.0248222  45.9818382  87.5138168  52.2350502  17.1984425  50.1370316
  52.9788742  17.7909069  50.0277290  51.7071724  17.3288879  49.3492737
  12.3618975  59.8134003  11.9669065  12.5103540  59.0982056  12.5855246
  13.2061291  60.2610703  11.9112644  15.0986013   8.0298042  25.1481266
  15.7337809   8.0130796  24.4322357  15.5939655   8.3539324  25.9003143
   6.8855510  47.4359512  18.7754536   6.2538009  47.9710808  18.2950764
   6.4401155  46.5988235  18.9059601  78.8026657  54.8506660  37.5005264
  78.2655640  55.4655800  38.0001640  78.4829941  53.9868774  37.7611198
  68.0022964  48.4820023   7.8670263  67.4787064  47.6820335   7.9132380
  67.8481903  48.8184586   6.9842577  74.7103043   8.3560581  88.8602371
  74.0922623   7.7769961  89.3062744  74.7153473   8.0484095  87.9538422
   9.5074081   0.4703516  14.8783035  10.3998518   0.1245637  14.8926811
   9.2091112   0.3261491  13.9802742  30.6774464  38.8799706  63.0561752
  31.4268322  38.6214066  63.5926399  31.0110703  39.5865974  62.5033607
  80.2890701  11.1865177  37.9811401  81.0745163  11.3207445  37.4507751
  79.5629578  11.3215828  37.3722496  52.6434212   7.0352125   7.7954698
  53.4935646   6.9200497   8.2200022  52.2745323   6.1528869   7.7548084
  24.4711571  43.9781685  87.7918167  23.8896580  44.7369995  87.8394623
  23.8867359  43.2386703  87.6250076  72.5455322  46.6586571  22.5340481
  71.8030243  47.2147751  22.7699375  73.3143616  47.1506805  22.8222198
  53.5616264  10.2336512  87.2705841  53.2320976   9.7783823  86.4957428
  52.7744904  10.5364590  87.7233047  35.4476242  34.4422836   7.5624156
  35.7630806  35.1757164   8.0904303  36.0904541  33.7482147   7.7082639
  63.1043663   9.2658043  13.3196106  62.7039185   8.4488449  13.6170168
  62.8416023   9.3412857  12.4022827  15.1192579  21.7474995  75.8134613
  15.7574263  21.3292427  76.3914185  14.3392344  21.8570271  76.3573380
  64.3954773   7.4082885  87.8913498  64.6276169   7.3750515  88.8193817
  65.1172409   6.9626999  87.4478073  36.3384018  61.6880379  84.4912262
  36.2487984  60.8338966  84.0685654  36.9250298  62.1794434  83.9162292
  33.4485550  58.7062531  74.4568558  34.3276253  58.4798088  74.1532288
  33.5293808  59.6052437  74.7754669  81.3025589   1.7183987  55.1299286
  80.4009171   1.4021908  55.1872177  81.8334045   0.9868461  55.4449959
  53.3619957  26.8367958  16.4364948  53.7354774  26.3851986  15.6796560
  53.7376595  26.3868790  17.1932526  46.5562935   0.9679542  58.6752319
  47.1365471   1.5884372  59.1162949  47.1455803   0.4012566  58.1774101
  72.8048248   1.4691312  85.1437607  73.1280289   0.7055540  84.6655045
  73.0312347   2.2140069  84.5868607  31.2207146  40.1734810  85.3010101
  32.0423355  40.3366470  84.8378220  31.2296238  40.7935143  86.0301895
  64.2334900  33.2503014  51.6603928  64.7549057  32.5696030  51.2349472
  64.8330536  33.6542816  52.2877274  60.8748283  27.8632240  51.3194351
  60.2389832  28.4085369  51.7826500  61.4852333  27.5772572  51.9990349
  40.3575287  38.1752625  76.6263885  40.1267891  37.2589188  76.7790451
  40.5604744  38.5192719  77.4962769   8.2783442  14.6967525  81.6181564
   8.0582151  14.9198761  80.7137222   7.8016653  13.8840761  81.7871704
  62.7252121  10.8653708   5.2085900  61.8109550  10.9011707   4.9273658
  63.0030861  11.7809086   5.2369881  38.3250771  55.5860977   4.2109709
  37.4929886  55.9591599   4.5019774  38.0857468  54.9938049   3.4981303
  52.9309082  65.0654526  60.8762627  52.5261002  64.2010498  60.8043938
  53.6549988  65.0435944  60.2506027  53.7845726   2.4094877  83.5457611
  54.6602249   2.7959421  83.5566864  53.9386406   1.4699497  83.4469452
  33.1716309  52.9569893  63.3959618  32.4674873  53.5118713  63.7313995
  33.5525780  52.5552101  64.1767883  71.7170563  43.6821899   7.7245159
  71.3748322  44.3315353   7.1101360  72.2277679  43.0830956   7.1800046
  59.7278671  37.1453896  66.3962250  59.9896507  36.2546234  66.1633377
  60.4930267  37.6818390  66.1888885  83.3590927  40.6248055  53.6887817
  83.1117096  39.7220421  53.8889084  84.2849350  40.6776352  53.9259872
  70.8900604  26.4551792  52.5832481  71.3367233  26.9856682  51.9234695
  71.3113251  25.5975494  52.5263519  13.8126678  25.2715054  69.9551773
  14.2667770  24.6236382  70.4939575  13.2855263  25.7730827  70.5770874
  58.3585587  24.1571331  42.6178818  58.1319695  24.8117027  41.9572525
  59.0069466  24.5910397  43.1724510   2.9153535  59.2532082  12.9648371
   3.0572302  59.0172615  12.0480871   3.4523258  60.0345154  13.0969305
  72.7920761   6.4611797   0.7277974  73.4154587   6.0351920   1.3161474
  72.6501160   5.8243303   0.0274385  62.9687042  60.1344490  72.9466324
  62.3205719  60.7587013  72.6203461  63.8109436  60.5649414  72.7998734
   8.6339674  15.7997465  15.8528357   7.7847838  15.7011909  15.4222488
   8.4735136  15.5421934  16.7606640  77.6388855  33.9618187  13.9917259
  77.8779297  34.8326530  14.3091154  77.8407440  33.3769531  14.7220802
  35.3010483  12.5274649  66.4642258  34.5011253  12.2594023  66.9164429
  35.5495567  11.7634172  65.9439316  11.4275599  13.2093620  10.0451765
  12.1687574  13.1509819   9.4423084  11.5837955  14.0139341  10.5396309
  35.1211739  60.0294113   2.8556275  35.2173843  60.9676895   2.6925149
  35.7095642  59.6150208   2.2245100  58.4498367  25.1884441  71.1459198
  58.6570091  25.8616104  70.4977188  58.4756165  24.3671646  70.6549301
  55.5040283  30.3022938  87.8318863  55.7734261  29.3837910  87.8348083
  56.2517471  30.7723751  88.2009048  60.1182938  50.7687950  72.3962173
  60.6188354  51.3869209  71.8636627  59.3551826  51.2674255  72.6882095
  84.7614441  55.4378166  46.2550774  85.0265427  56.2804031  45.8862991
  85.4548950  55.2201729  46.8779678   9.7787771  59.5984344  67.8478928
   9.0740871  59.8957977  68.4234085   9.3310518  59.2946587  67.0582809
  67.5585327  32.2158852  79.4120789  66.6706085  31.8627110  79.3565521
  67.4352646  33.1608887  79.5015259  45.8736000  51.2753716  58.9439659
  46.3836975  50.6537590  59.4632263  44.9932671  51.2338028  59.3174858
  51.9095192  24.7210770  19.9948311  51.6021729  25.4253998  20.5655327
  52.8636360  24.7569160  20.0627155  48.4357567  49.7695885  21.0500736
  48.7130737  50.6838875  21.1082535  47.4855423  49.8138313  20.9434471
  61.8150406  20.2754288  57.0568085  61.2217445  20.1452084  56.3170319
  62.3614540  19.4895763  57.0668259   2.2459095  52.0987015  55.4078598
   1.3332673  52.0862923  55.6962395   2.5635269  52.9670753  55.6554108
  14.1944904  53.4318352  70.8236237  14.5037651  53.2357750  71.7080154
  14.8141928  54.0814705  70.4916992   3.2341294  60.9370308  67.1889343
   3.1487784  61.1136017  66.2520447   3.3292980  61.8018723  67.5879593
  47.8085289  33.6189232  10.4724874  47.7914162  33.1197052  11.2890177
  48.7178612  33.5658684  10.1783314  25.7718601   2.6180344  87.1503830
  25.9268894   3.5569844  87.0475693  26.6033802   2.2101133  86.9087067
  53.1793480  21.6806908  73.0313721  52.5808678  22.3745766  73.3080978
  54.0492325  22.0110378  73.2558746  67.6797714   3.4627786  36.8161392
  66.9717407   4.0855846  36.6517105  68.4392624   3.8411157  36.3731079
  25.3658924  47.3795929  11.9861755  26.2457867  47.0156898  12.0841293
  25.4531116  48.0339012  11.2929935  22.3545246  62.2256889  42.0426712
  21.9951630  61.3388939  42.0689583  22.0210037  62.5951347  41.2250519
  74.8922195  42.5518684  79.0861511  74.4383698  42.9270744  78.3315125
  75.7649841  42.3359375  78.7576981  64.2842560   0.9576856  81.3820496
  63.8840370   1.4731928  80.6818314  64.6257706   0.1795804  80.9414139
  70.0507812  37.2136955  85.5544815  69.7476807  37.5115700  84.6967850
  70.9444580  37.5497284  85.6226654   4.7217174  51.8965721   9.8988962
   5.4335065  51.7635841   9.2728739   4.6719394  51.0726357  10.3835449
   6.3039966  39.1674614  37.5379066   6.4061813  39.9273567  36.9648895
   6.7813983  38.4666786  37.0938034  51.3820992  69.6288986  82.0933304
  52.0630493  68.9644089  81.9884567  51.7165909  70.3912506  81.6209335
  56.9561615  62.5522537  41.9828911  57.7904892  63.0174713  41.9220085
  56.8516998  62.1348915  41.1278305  83.1625214  38.1031151  36.7861443
  82.4392166  37.5909843  36.4244957  83.9472275  37.6067543  36.5535507
  84.4327316  59.0881424  16.5903816  84.0976868  59.7083740  15.9428549
  85.1318893  59.5640945  17.0385723  61.7202835  57.7080727  20.5691586
  61.2057571  58.3337021  21.0791435  62.2888565  57.2848396  21.2124557
  67.5702744   7.4838686  71.1420517  67.3918762   7.0526280  70.3063278
  66.9415207   7.0960221  71.7507248  24.5768738  60.5547867  81.3503876
  24.1210289  60.9019470  80.5836334  24.3512268  59.6246414  81.3623962
  12.1906767  28.6435127  14.0209827  11.7841644  28.1431999  14.7285614
  13.0056505  28.9740257  14.3988857  24.2393990  20.3103485  85.4317093
  23.5764389  19.6943932  85.1197586  23.7375851  21.0161705  85.8394241
  72.8071518  16.2416954  48.3726349  73.4819260  15.5646534  48.4228897
  72.0751495  15.8882809  48.8781013  67.2502441  71.4889755  60.7283249
  67.7151794  71.9269028  61.4412727  67.5886993  70.5936432  60.7360001
   0.2396318  65.9387054  16.2730560   0.9856711  65.5501862  16.7299023
   0.0304768  65.3123627  15.5801067  72.5748367   8.3978062  20.7869473
  72.8541794   8.7950525  19.9620857  73.0097504   8.9179182  21.4626484
  40.8956947  42.3280640  69.7236633  40.0205040  42.3404541  70.1111145
  41.2279205  41.4500198  69.9104614  45.5977402  18.2996960  60.4539528
  45.4752045  17.4823284  59.9711189  46.5070610  18.2682495  60.7512360
  15.4169579  50.8816147   6.3211737  15.2179995  50.5116539   7.1812763
  16.2290154  51.3709335   6.4529414   7.3982315  62.8468857  84.0111542
   6.8850417  62.8354607  84.8190689   7.8483086  63.6915512  84.0252151
   7.1630211  35.1539650   2.1020422   7.9134345  35.7411575   2.1932173
   7.2429128  34.7988968   1.2167310  17.5185719   0.2644496  70.7836075
  16.7907104   0.1220706  71.3887329  18.1159630   0.8417190  71.2591248
  65.5475006  27.0075874  18.5312424  66.0634537  26.3913307  19.0510979
  65.6349869  27.8418312  18.9923401  19.1419239  14.0157270  33.6202736
  18.5894146  13.7525120  32.8842812  19.2004414  14.9683352  33.5471573
   6.4617558  53.7341843  37.4162216   7.0892954  53.6080322  38.1279182
   6.7640510  54.5238075  36.9675026  77.5439377  10.5833015  56.0289307
  77.5928116  11.0353298  55.1866074  77.7184982  11.2654724  56.6773186
  45.3408775  69.6304398   2.0910580  45.6263962  70.4840851   2.4166312
  44.6563911  69.8339157   1.4536369  54.2082291  36.0880394   1.6394054
  53.7280273  36.8189507   1.2502947  54.0450554  36.1675034   2.5792408
  35.9589272  60.2979355  11.5460052  36.6516037  60.8151741  11.1350327
  35.5629959  59.8107758  10.8234081  76.9981766  49.0230179  89.1883392
  77.8475494  49.2571182  88.8141708  76.9370346  48.0752220  89.0692749
  77.5354919  53.8222847  52.1698990  77.6959000  52.9695015  51.7658424
  77.2179260  53.6149788  53.0487633   5.3666234  10.8620605  66.2417984
   4.5744720  10.4417982  65.9069748   5.3486404  11.7417507  65.8648987
  33.6746483   4.0290780  12.7278662  33.9040451   3.2987084  12.1532631
  32.7906799   4.2778282  12.4577703   5.6218901  50.4219704  47.9306870
   6.5436330  50.6694756  47.8574524   5.2173228  50.7668190  47.1346741
  71.2058716  69.6305923   7.5305839  70.2944336  69.8878174   7.6696873
  71.2304611  68.7018509   7.7609668   8.4820461  50.5657997  68.6199112
   8.9098082  51.3238297  68.2216110   7.5696683  50.6298904  68.3376160
  78.9825516  16.8788738  46.4345322  79.4495163  17.6875648  46.2243156
  78.6138458  17.0343189  47.3040886  51.0743141  43.3346863  36.3530807
  51.1226234  42.8686066  35.5184135  51.5204124  42.7595520  36.9747314
  57.5770493  35.0939903  79.3329239  57.2150955  35.8418388  78.8575821
  56.9779816  34.3734055  79.1377106  66.8527145   9.0730810  42.5707779
  66.3960495   8.3365746  42.9772797  66.6079254   9.0260582  41.6466026
  28.7779617  53.6434517  59.7353897  29.1623898  52.7743835  59.8501205
  27.8348026  53.4848785  59.6962090  53.5547333   4.2903056  61.1268768
  53.4050255   3.9111342  61.9929314  53.6345634   3.5344508  60.5450325
  45.2376823  20.6700630  80.3673553  45.9572296  20.1816673  80.7672958
  44.4819336  20.4816837  80.9237595  66.7865295   1.5372729  84.4386444
  67.3830948   2.2493360  84.2077713  66.7599487   1.5477971  85.3954239
  73.1044235  64.7125092  45.4798698  73.0605164  63.7636414  45.3617134
  72.9773560  65.0694580  44.6008530  20.3315945  31.1863327  80.0716324
  20.4386024  30.7027035  79.2525558  21.1997662  31.1702747  80.4744339
  55.2746696  58.0769157  36.0472107  54.7604218  57.5808220  36.6841316
  54.6233368  58.4590645  35.4590225  76.7143326  32.3053017  58.5442314
  77.2204514  32.1627464  57.7443886  76.4473267  31.4278984  58.8182831
  73.7562332  39.2835464  36.4135208  74.4883041  39.5435867  36.9727020
  74.1419373  38.6785774  35.7798996  35.5842438  67.9239120  25.1235790
  34.7161789  68.3230133  25.0651398  36.1528320  68.6308746  25.4287758
  70.4184799  66.9286880  68.6489716  70.5445404  67.3905258  69.4778595
  69.7033310  66.3164978  68.8222427  82.4589691  52.5994148   5.7482858
  82.6391296  51.7361526   6.1205091  83.2204285  53.1274147   5.9883413
  77.2032394  35.9990768  68.8371353  77.6154099  36.6013222  69.4565277
  76.3464508  36.3872337  68.6597366  65.8445892  14.4435816  88.1220322
  66.7688599  14.4775486  88.3686066  65.3795242  14.7761641  88.8897095
  61.8813095  13.4404345  60.6630211  61.7618294  12.8345394  61.3943558
  61.6592255  14.2985964  61.0242271  27.1960526  34.3082314   7.5684733
  27.8272896  34.9756660   7.8373680  26.9707832  34.5407028   6.6676722
  37.8645744  51.2929268  44.1575127  38.2995720  51.2656822  45.0097237
  37.2595863  50.5513306  44.1735954  34.9846077  29.1514835  86.7444153
  35.4420128  29.9513493  87.0037079  35.5989876  28.7015171  86.1645050
  43.3985176  41.8881950  44.9189911  44.3379631  41.9228897  45.0991898
  43.0672035  41.2077370  45.5050316  74.9978790  64.7691727  74.4607849
  75.4282608  64.1676483  73.8531876  75.4300232  64.6115799  75.3002243
  74.7314606   3.7733364  50.0786247  74.6222916   3.6735270  51.0243263
  75.3401947   4.5059214  49.9837875  78.7353821  57.7437630  27.7828903
  77.9542465  57.7578430  28.3359375  79.3849335  57.2652245  28.2979755
  50.1991234  38.8455200  79.5415878  49.3538437  39.2064743  79.2742996
  50.3842545  38.1648140  78.8945999  52.1838570  57.3494987  17.6336365
  51.6752052  56.8822861  18.2963715  51.5385551  57.8802643  17.1666145
   7.3165760  65.9206543  48.3330307   6.8906398  65.3289413  47.7127953
   7.1681237  66.7942886  47.9711571  43.2189026  19.6047821  67.4601288
  43.7843628  20.2424316  67.8958969  43.7515488  18.8114777  67.4036713
   0.7672905  27.9441948  69.4874039   0.7091930  27.1935062  70.0784454
   1.2200396  28.6159801  69.9972610  78.0709534  24.8337097  40.3431892
  77.2858582  24.3910713  40.6655731  78.4133911  25.2997875  41.1059113
  45.1524734  22.3334255  20.5283489  45.4818611  21.6673756  21.1317654
  45.9328461  22.8151646  20.2541695  73.1985092  46.5180054  80.8611145
  73.9430695  46.9412498  81.2885818  73.4582138  45.6001854  80.7811890
   5.5472245  24.3472271  66.5914917   5.8934135  23.4901752  66.8401794
   6.3123384  24.8356209  66.2876740  23.8682652  29.4343567  62.8238907
  24.6770229  28.9223919  62.8297234  24.1399689  30.3081760  62.5430870
  20.1608639  66.5842285   8.7725544  20.1691246  66.2812347   9.6804953
  19.7486725  67.4472427   8.8118038   9.7400408  67.0437393  25.4721241
  10.4397516  67.5194244  25.0245056   9.7126188  67.4270630  26.3487911
  71.9210892   3.7550721  23.3563309  71.7267532   4.3959546  24.0402431
  71.9046326   4.2599812  22.5432949  77.7021027  38.8348427  24.7865639
  77.9760513  39.7448120  24.6719456  78.4913864  38.3230019  24.6097069
  24.0462074  41.1008682  53.8781242  24.6052856  41.4847870  53.2026482
  23.6738758  40.3211746  53.4662056  85.2226562  35.3049698  73.0457230
  85.5898514  35.1925774  72.1689301  85.5514908  34.5548134  73.5410690
   6.0444903   2.8735669  56.3751335   5.9967799   2.0645337  55.8657990
   5.2875237   3.3833470  56.0864182   9.0763254   9.6727200  82.9494171
   8.3803034   9.3492270  82.3774567   8.9062786   9.2547483  83.7935791
  56.6585693  44.5034676  15.7029648  56.0083885  44.6465569  16.3907299
  57.4989395  44.6725578  16.1288948  40.3072433  56.6528015  52.6019402
  39.8172531  57.4664154  52.4828796  41.1271248  56.9251022  53.0141068
  13.4292927  64.5342865  13.6046944  13.8181105  64.9128799  12.8162050
  13.5030708  65.2248459  14.2634134  81.0698013  40.2243347   9.8386812
  81.8677826  39.7232475   9.6702394  80.4029541  39.5606575  10.0149603
  33.5803566   1.1047709  80.2757874  34.0179825   1.9465978  80.1491165
  32.7656708   1.3239850  80.7279663  48.8557930   6.9355268  79.7480011
  48.8605232   6.0102677  79.9931641  48.6990242   6.9323058  78.8037338
  61.5534096  63.7691383  14.3498316  61.9038391  62.9792824  14.7616053
  60.6457291  63.5480156  14.1413727  76.7210312  58.1180496  14.9168186
  76.5848236  58.2172012  13.9745617  76.4976196  57.2047615  15.0963211
  24.4460697  66.0608368  45.6842384  25.3921623  66.0488586  45.8291435
  24.1575356  66.8948517  46.0549202  45.4775467  66.7736130  66.8351059
  45.3599167  66.3013382  67.6593323  45.2960892  66.1221008  66.1577377
  69.0125809   5.7762375  44.7524948  69.5213013   4.9698496  44.6677933
  69.5131149   6.4278827  44.2615242  77.4752579  58.1016235  20.2526188
  76.7269745  58.4509430  19.7685890  77.0865860  57.5288887  20.9137859
  65.9608231  45.2845192  28.7234917  66.0709686  44.9195747  29.6015072
  66.6375885  44.8560944  28.1994057  66.5756302  36.9452477  78.2493057
  66.5059738  37.8047752  78.6647491  66.8251190  37.1357994  77.3450470
  46.4333267  15.3509483   2.7043979  47.3189392  15.0122185   2.5733180
  46.5616570  16.2645092   2.9596815  84.5801773  44.2768135  34.9897461
  84.7719574  43.3468323  34.8689919  84.8462906  44.6851807  34.1659431
   5.2433286  43.7155495  61.2803230   5.2109866  44.5704002  61.7097626
   5.2898312  43.0871506  62.0008659  18.5898952  35.0159874  76.8848724
  18.2946110  35.0417519  75.9747162  17.8330669  34.6918793  77.3731308
  62.9032440  32.0971375   0.4901387  63.2431221  32.0096817   1.3806812
  63.4077415  32.8167458   0.1108264  45.1141472  55.3437004  10.9036484
  45.5951881  55.7261391  11.6375237  44.5552063  54.6780281  11.3045225
  65.5979156  51.0198174  33.5905533  65.2848053  51.5908241  32.8890228
  64.9910965  50.2795639  33.5856781  27.4069099  21.8271599  88.0509109
  27.2893925  22.2891846  88.8809433  28.2788506  22.0869904  87.7535172
  67.6193619  23.5853786  82.8100739  68.2073135  24.3061333  82.5841217
  68.1479645  22.7971153  82.6857452   5.0989614   1.0676399  70.3985901
   4.6997070   1.6080196  71.0803680   5.6327233   0.4335873  70.8774567
   2.3749797  23.3701992  38.4333191   2.8746476  23.6394806  39.2040672
   1.6177486  23.9556141  38.4222412  43.7640076  71.9406662  41.5433159
  43.1073112  71.2507172  41.4487190  44.4925079  71.6551590  40.9919472
  51.2118912  62.8070869  15.5252838  50.9749222  63.4424248  16.2008743
  51.9884033  63.1798286  15.1077642  41.1908531  47.7510643  79.1202621
  41.8938332  48.4007111  79.1173553  40.7507477  47.8706284  78.2786942
  20.5197830   8.3307457  87.0104980  20.4786072   7.3744330  87.0121460
  21.4480858   8.5307169  87.1309052  49.6542473  31.0927811  77.5681839
  49.5245781  31.5776920  76.7531509  50.5421867  30.7419586  77.4994812
  -0.1285182  12.5796471   6.9237924  -0.2003351  11.7804604   7.4456873
   0.7312346  12.9356956   7.1480389  62.7510376  28.3813992  67.1661224
  62.9839668  28.1310291  68.0601501  62.4616623  27.5659904  66.7567291
  62.8755264  23.8283730  29.7260742  62.0008392  23.4531326  29.6243496
  63.0424652  23.7948589  30.6680088  69.3539658  60.2691078  14.4864464
  69.8450317  59.6382141  15.0128098  69.2823410  61.0429573  15.0452471
  46.5929985  58.2924538  30.1265736  46.7652206  58.9948692  29.4995308
  47.4611511  57.9744720  30.3744354  63.1805725  64.5727386  55.8708115
  62.5530510  64.0327988  56.3513451  63.8086052  63.9467049  55.5104179
  51.9360847  31.0442505  44.9035912  52.2321358  31.9447670  44.7707214
  51.6222878  30.7658768  44.0431976  66.7050858   7.2614036   4.2628012
  66.3863983   7.6580210   5.0735822  66.8539658   8.0027609   3.6758988
  11.8424444  11.3519564  24.7900276  12.1655111  10.5112305  24.4659309
  12.4937038  11.9885292  24.4952946  38.8583832   0.5462475  75.7422638
  38.2397270   0.4208800  75.0226974  39.4459686   1.2367558  75.4353867
  35.6946259  41.0862732  74.3627625  35.0030289  40.5730782  74.7805557
  36.4628716  40.9488945  74.9169846  85.6040115   7.4718266  75.1391754
  85.7743607   8.3112879  74.7119598  86.3796768   7.3154445  75.6778107
  84.8649292  27.9877071  79.8726730  85.6000214  27.4979935  80.2415314
  84.3712616  27.3379593  79.3723145  81.3068390  50.8015251  76.2456055
  81.6922760  50.2112732  76.8931198  81.3519592  50.3158798  75.4219894
  85.2413254  22.2747231  29.2077713  85.1089935  22.6772785  28.3494759
  85.7326813  21.4741631  29.0236473  57.7517929  28.5838127  73.7827225
  57.8513107  29.2143555  74.4959869  58.4416924  27.9381828  73.9357910
  53.9171295  32.6669884  21.5200520  53.5300598  32.0551453  20.8939056
  54.8603554  32.5942039  21.3742390  66.6603928  15.9966164  23.0861607
  66.8228607  16.9270725  23.2413673  65.7857895  15.8433027  23.4436378
  10.3539581  67.0794296  79.4315720  10.7639027  66.6337738  80.1729050
  10.0881605  67.9301300  79.7807007  14.7845659  67.5992203  21.5349216
  14.3426628  68.4107361  21.7847099  14.3527927  67.3312759  20.7237434
  51.7190857   6.0714993  23.9560146  51.9939041   6.1370544  24.8705692
  51.4545898   6.9609203  23.7210598   2.9292033  66.6820831  17.9622726
   3.8658392  66.7555084  17.7790947   2.5241823  67.3519287  17.4113731
  10.4018078  69.8482132  18.0319843   9.7045755  69.6231308  17.4160004
   9.9525766  69.9688797  18.8685627  11.8685341  57.0195885  81.4029083
  11.1087341  56.8828316  80.8370132  11.5883503  57.6945305  82.0211182
  59.5532913  23.0999889   7.1554260  59.9767265  23.4871693   7.9216013
  59.5273056  23.8086166   6.5124612  69.5355759  55.3377647  17.8437672
  69.4457932  55.5594749  16.9169350  70.4420471  55.0434914  17.9329185
   5.5294533  66.2342911  74.3252792   5.6747565  66.6159668  75.1909790
   4.5812230  66.2757950  74.2013092  44.4139290  42.7599754  10.4780102
  44.3154030  41.8172874  10.3443642  43.5619392  43.0454483  10.8079386
  33.3024864  50.9887352  12.3518753  33.5660172  50.9053345  13.2682953
  34.0224991  50.5953674  11.8588524  11.1624298   0.3198154   9.5712461
  11.9418764   0.1364037  10.0957022  11.1505117  -0.3720405   8.9098644
  25.2462521   5.4065924  66.9818344  25.0414143   4.9811687  66.1491928
  25.0063362   6.3234825  66.8477249  49.3065758  34.4720345  21.2688560
  48.8032455  34.6499062  22.0633717  48.9878349  33.6207466  20.9689579
   0.1214768  36.0285263  62.9118347   0.6870335  36.5150375  62.3120995
  -0.7487705  36.0819740  62.5168114  64.9826584  61.4739647  35.1703453
  65.0460968  62.4236984  35.0692940  65.1346741  61.1288071  34.2905807
  78.2883453   8.9544430  41.6120796  78.6024399   8.0523539  41.6738396
  77.7779541   8.9754534  40.8025818  30.9463577  51.2067986   5.7181282
  30.2736492  51.5539513   5.1323142  30.5501137  51.2473259   6.5885191
  62.1173439   0.6418360  38.8746147  62.9603386   1.0919633  38.9291534
  61.6076012   1.1623787  38.2537842  64.8881760  23.3383617  20.0017853
  64.4812775  23.9577522  19.3959656  64.1990662  23.1337128  20.6338291
   2.0459611  47.5410614  18.8282757   1.8199968  47.2304955  19.7050438
   2.5746002  48.3243866  18.9805012  54.3522797  37.0926208  41.2514153
  55.2220497  36.8908463  41.5964088  53.9816360  36.2402267  41.0227776
  73.0106506  33.6710815  73.6487961  72.6581650  33.0182762  73.0439529
  72.6884155  33.3998680  74.5083542  62.4242210  45.8683548  68.6160965
  61.9763069  45.8406143  69.4615784  63.3474274  45.9895248  68.8380051
  53.4394112  45.4105225  68.2715225  53.2583046  46.2601204  68.6735382
  52.5846634  44.9827232  68.2202759  10.5896883  40.4087296  60.4720001
  10.6867085  39.5721588  60.9269409   9.6498795  40.4838524  60.3066254
  63.3750534  62.1156273  49.3639297  64.1282883  61.7993164  48.8651123
  63.1517410  62.9521866  48.9558411  76.0191422  69.1712189  44.6597977
  75.2234955  69.2641220  45.1837730  75.8967285  69.7771149  43.9289513
  22.4341965   9.8361692  15.0166979  21.9213428  10.2167988  15.7296734
  22.6879330   8.9714317  15.3393087  65.9565582  18.7681408  87.6848221
  66.5657043  18.3942719  88.3215332  66.3914948  18.6515121  86.8401566
  84.9847565  18.7880154  71.1361694  85.8297501  18.3413010  71.0845718
  85.1891785  19.6445866  71.5113068  55.1147499  33.6254387  51.6097679
  55.6612740  33.0383224  51.0874290  55.7361374  34.1144028  52.1492310
  21.0744419  57.0540810  11.6785679  21.6066570  57.3724022  12.4077120
  20.3419361  56.6012955  12.0964842  54.4419289  48.4492950  32.0194473
  54.0709267  49.2010384  31.5574207  54.0743408  48.5050240  32.9014969
  62.9571228  37.1613388  26.2689095  62.6970062  37.9933510  26.6642895
  62.2221680  36.5733070  26.4429550  36.5072632  28.0061188  84.8046570
  37.4620247  27.9704666  84.8629074  36.2562904  27.1497879  84.4583282
   2.6530020   0.3211718  59.6428146   3.4897912   0.3975417  59.1843567
   2.8885131   0.0332513  60.5247803  28.4149284  25.1878700   1.0339880
  28.3820972  26.1411915   1.1135610  29.2979374  24.9539223   1.3199871
  71.1008682  19.0574627   8.0015669  70.3682632  18.4478188   8.0902147
  71.2532425  19.3795872   8.8899632  51.6902618  35.6291962  71.0481644
  52.3127632  36.2261810  70.6330338  51.2444344  35.2015991  70.3169785
  67.7085800  39.4758949  35.8079376  67.2393951  40.0953064  35.2489815
  68.2895813  40.0228996  36.3365707  29.2691250  49.2678185  54.1763306
  29.0755444  49.5531349  53.2833824  29.4590549  50.0773087  54.6505508
  74.5639343  11.6783066  37.7112007  73.9895859  10.9643326  37.4344406
  74.5996017  12.2638979  36.9548683  30.4805698  61.4626579  56.1748810
  31.0318832  61.3532562  56.9496803  30.0654240  60.6087074  56.0538063
  63.9899559  14.6821079  73.4757538  64.3512955  14.0601530  72.8442154
  64.7013779  14.8317804  74.0984192  86.8154144  55.2499847  43.6623878
  86.8509140  55.7973022  44.4468689  86.5989075  55.8581429  42.9556351
  37.2001724  68.7379456  68.9796982  37.6061401  67.8781204  69.0898056
  36.3953781  68.6906738  69.4957428  52.1913414  27.2355194  32.8188171
  51.5231438  27.7865314  32.4112282  52.9396553  27.2870407  32.2241707
  19.5737991  64.8738098  47.1892586  20.1082439  64.4910355  46.4934998
  19.7406998  64.3197861  47.9517746  39.5173111   3.0042088  23.0543423
  39.4339676   2.2129760  23.5865421  38.7867355   3.5571954  23.3312912
  80.4243927  19.1965656  45.6460228  81.0058670  19.9095306  45.9102135
  80.0647125  19.4798374  44.8054123  31.9141979   5.2724433  17.3233471
  32.0648994   5.2353892  18.2678833  31.8184757   6.2055278  17.1325016
   3.2949958  46.4702988  73.6375961   3.7898343  46.7747459  74.3983078
   3.4300270  45.5227242  73.6276169   1.2801492  51.0292282   0.9296539
   0.3657658  51.2433243   0.7444580   1.6473655  51.8371010   1.2884432
  74.8356628  47.9121246  72.1361084  74.5934372  48.6637688  72.6770248
  74.0524368  47.7278442  71.6176147   6.5037389  68.9214630  60.0742607
   7.1575465  68.4595337  60.5990372   6.9961023  69.6139755  59.6335411
  41.7503586  54.6461258   8.2765141  40.9540787  54.6994820   8.8050232
  41.4400749  54.6813049   7.3716836  74.4336319  23.1102524  35.6370506
  74.1355209  23.9107609  35.2051392  75.2731400  22.9124985  35.2218933
   6.8639073   1.3486612  26.7278652   7.4023767   0.7811319  26.1763287
   7.2132673   1.2262487  27.6105862  42.0036659  47.2223854  59.0467796
  41.5670700  46.5335045  58.5457230  41.2933044  47.7951851  59.3357849
  74.6384125  55.4371109  50.7976913  74.0411758  55.6620331  50.0842857
  74.4589233  54.5144196  50.9784088  28.4159775  69.7784653  31.1581020
  28.3501873  68.8239822  31.1876717  27.7395859  70.0840073  31.7625618
  64.0121002  52.5644989  19.1777916  63.3898582  52.2598801  18.5172958
  64.1268539  53.4955292  18.9874077  41.8540688  55.6548653  56.1435242
  42.5383759  55.1003532  55.7687302  41.8832169  55.4698219  57.0822144
  29.1042461  59.9850197  33.6042175  28.1479244  59.9599991  33.6366730
  29.3164291  60.9134636  33.5082550   1.3629377  66.4395370  86.8824997
   1.8780088  65.7177582  87.2430267   1.4350251  67.1350937  87.5361328
  29.5231495  69.5537949  65.0639648  30.2572403  69.1104431  65.4891434
  28.7944069  68.9379501  65.1407928  35.8507233  17.6987724  10.6712904
  36.3311310  17.7704201   9.8464842  36.1384354  18.4551373  11.1825294
  39.2789307  61.1407967  30.1386833  38.3287735  61.2409210  30.1970959
  39.5734482  61.1148071  31.0490761  85.9876404  15.8056135  85.5405273
  86.5091782  16.0116692  86.3162689  86.5947266  15.9130106  84.8083115
  32.8016968   2.9841866  42.5930824  33.1216774   2.5836258  43.4014130
  33.5942001   3.2587781  42.1318130  81.6498032   9.4967575  83.8337860
  81.8226089   9.0444775  84.6595078  82.0258713  10.3686056  83.9549866
  81.1992264  24.4426651  70.8389053  80.4254150  24.7418728  71.3163147
  81.9177551  24.9644012  71.1963196  13.4727592  41.7070503  66.0721893
  12.8776073  41.0918350  65.6437759  13.3064203  41.5893402  67.0074463
  78.1266785  14.9575634  40.9244156  78.4135208  15.4738436  40.1711502
  77.1726608  15.0353918  40.9188232   4.9104714  18.1777744  67.3251648
   5.8144174  18.1315155  67.6365738   4.9792809  18.0830784  66.3751526
  45.2833366  43.2613792  35.4398842  46.1553383  43.0912209  35.0836754
  44.6830025  42.9244728  34.7748108  85.3297729  46.6387253  43.4775658
  85.1408615  46.6429977  44.4159279  86.2557907  46.4031448  43.4207420
  27.0479259  17.8449059  81.5635605  26.1683178  18.2223186  81.5546265
  27.3255901  17.9062328  82.4775543  77.7266083  32.8481750   4.0861549
  78.6022949  32.5768051   3.8109031  77.6834488  32.6134987   5.0131378
  43.6643219  14.3879385  11.3507433  44.2038116  14.3946571  10.5600863
  44.1248970  13.8005533  11.9499779  38.6071396  41.6880455  18.3004131
  38.0717049  41.1933441  18.9207439  38.2440605  42.5734100  18.3235054
  30.8168964  57.3818207  54.6614609  30.1104622  56.9897194  54.1481934
  31.5905552  56.8639908  54.4388924  32.8774529  32.1714630  86.5460129
  32.5642052  31.3152008  86.2545929  32.1113014  32.5836220  86.9452286
  80.0887375  42.3448448  88.6217346  80.9191208  42.0254478  88.9748306
  79.9393234  41.8113022  87.8411942  61.8388138  16.3372612  67.0616302
  62.3639450  15.8852921  66.4011841  62.4636879  16.8970108  67.5225525
  76.0509415  40.2208633   3.4221287  76.3474197  40.9804306   2.9207451
  76.7693710  40.0383911   4.0277677   2.6513965  55.6196136  27.8762722
   2.8397386  55.3664932  28.7799816   1.8517165  56.1423187  27.9356480
  80.1290741  34.1664200  42.6482353  80.7169266  33.4433670  42.8670006
  80.6317520  34.9545135  42.8542786  46.9511299  17.8492222   3.1677899
  46.0542450  18.1721401   3.0808876  47.4985466  18.5883274   2.9026628
  75.3379440   1.8014690  19.9146519  75.9176788   1.0410486  19.8711205
  74.4980698   1.4815029  19.5853043  75.8927307  45.5505295  31.7627716
  75.4066162  44.8373985  32.1767387  76.8126907  45.3249054  31.9005756
  23.3600025  43.5267830  25.5908413  23.1622887  43.9122200  24.7372742
  23.9610233  44.1486702  26.0010376  73.7054214  16.0763855  34.0557098
  72.8711777  15.6550426  34.2624435  73.5685654  16.4682865  33.1932030
  70.3818741  53.3243217  57.9867821  70.6244354  53.7047806  57.1425972
  70.1205368  52.4272461  57.7789726  27.3051758   1.1626893   4.4019294
  26.6762486   0.4455079   4.3223495  28.0630684   0.8741538   3.8934243
   5.3713694  56.7029343  84.0009613   4.6341176  56.2578926  83.5830688
   5.0100641  57.0512581  84.8160400  63.7435760  55.8530083  22.2708855
  64.5144272  55.9112740  22.8353577  63.1456985  55.2719727  22.7411766
  84.6087570   3.6928291  43.7262917  83.6833191   3.5034015  43.8809128
  85.0322571   2.8344145  43.7266769  70.8241196   0.7758750  26.5395603
  71.5758896   0.9124714  25.9629974  70.3094559   1.5786333  26.4563198
  58.4821968  67.5381851  79.7873459  59.1340752  67.1081848  79.2338257
  58.9865265  68.1588745  80.3133011  21.1475792  23.7562752  79.9041519
  21.2608204  24.6314316  80.2749786  20.2943382  23.7880497  79.4714813
  18.2570591  33.4157028  63.0250168  18.0604496  33.4499969  62.0888557
  19.2081451  33.3159637  63.0665131  49.0136948  59.3774757  38.6428032
  48.8528481  59.6647148  37.7439995  48.1431274  59.3268929  39.0375023
  68.9030457  67.1894836  75.5666962  68.1403046  67.7492523  75.4213867
  69.4451294  67.3164444  74.7880707  58.1921158  38.3002357  84.2522812
  59.1243019  38.2480164  84.4633026  57.9412270  39.1915855  84.4947281
   1.8800124  30.7130051   2.8680344   1.3280400  30.2270412   3.4807310
   1.6463580  30.3651352   2.0074391  70.7666931   1.8804084  73.6290741
  70.0531921   2.5178490  73.6003876  70.3844833   1.1120191  74.0530167
  81.4653244  65.9232025  42.0774689  82.2248230  66.4749756  42.2644081
  81.2295532  66.1379929  41.1749687  56.0721741   3.5919187  64.0367050
  56.4235916   2.7975729  63.6345215  56.5336304   3.6615424  64.8724365
  46.0517654  60.4324379   1.9430449  46.1025696  59.4929008   1.7672108
  46.9235573  60.7638855   1.7277424  78.7955933  38.0429535   8.6798582
  79.4117813  37.3147469   8.6006966  77.9859085  37.6387482   8.9917154
  34.6187057  47.5532837  88.0259171  35.0040512  47.3256264  88.8720322
  34.9708748  46.9019394  87.4193192  46.7423820  55.1899261   8.6133251
  46.9451370  54.9241714   9.5102625  46.0133781  54.6257935   8.3553696
   2.5549321  23.0273132  58.3119392   2.0250554  23.6849976  57.8614769
   2.2793412  23.0833607  59.2268944  12.2376575  38.5730667  62.1140327
  12.0549717  37.6921082  62.4407883  12.2266874  39.1254921  62.8956566
  25.6111565  12.7552290  72.6468353  26.0649414  13.5979624  72.6573715
  24.8175926  12.9040632  73.1609726  36.9453735  57.8409309  77.0746994
  36.0287285  58.0040817  77.2969055  37.3610916  57.6320457  77.9112244
   3.7203600  16.5421658  11.4357767   4.1091018  15.8761892  10.8686914
   3.4977984  16.0721989  12.2394114  64.5919495   3.2481031  30.5558510
  63.9063644   3.2047324  29.8892784  64.7102585   4.1841593  30.7172031
  78.3463440  35.5431023  46.5306282  79.0766144  35.0191154  46.8598404
  78.3964005  36.3611145  47.0251808  24.1000328  15.0095587  10.0598392
  24.4420300  14.1462631   9.8274841  24.8739185  15.5144701  10.3096333
  26.8945580   0.3913400   6.9234414  26.0052567   0.5627404   7.2332797
  26.9575768   0.8723614   6.0982876  27.6961136  37.6504631  46.0353317
  28.3897305  37.4305153  46.6572227  26.9234753  37.7982368  46.5806961
  86.2031250  28.0374928  73.8576965  86.9708633  28.5987415  73.9664078
  85.9038773  28.2112198  72.9652328  22.7253971  34.9956360   3.3605442
  22.0260277  35.5339279   3.7311611  23.4828510  35.1689911   3.9195108
  68.5189896  20.4086742  13.7159681  67.9944458  20.5644970  14.5013418
  68.5105743  19.4577217  13.6071081  38.0085907  67.6648407  17.6650620
  37.9039345  68.4735794  18.1662846  38.8358727  67.2963486  17.9749737
  41.9246445  38.7978630  74.3224487  41.3597565  38.6546631  75.0818100
  41.3197670  38.8692284  73.5840302  71.7185440  65.2597809  10.9401398
  71.8193054  65.6107254  11.8249664  70.7786102  65.1026154  10.8504114
  49.3437843  50.1993408  80.2298584  48.8273811  50.9933395  80.0915604
  48.7129898  49.4848824  80.1410904  60.3721466  58.3718376  51.2710991
  60.1909103  59.3070793  51.3644028  61.2872276  58.3317566  50.9931602
  76.4447632  66.4737778  59.2708931  75.9378357  65.6657104  59.1915817
  77.1121063  66.4058685  58.5880470  50.7597275  69.7222366  52.2942390
  49.9940147  70.2913437  52.2165527  51.4926376  70.3235550  52.4264946
  74.2089462  43.9674110  69.7620850  75.1122665  43.8391342  70.0515442
  73.8567047  44.6257401  70.3610535  17.2055798   8.3624744  78.5248718
  16.7015076   7.9826455  79.2445068  16.5860500   8.9376965  78.0759506
  25.4205532  17.3510132  11.2769022  25.7526798  17.7331104  10.4645443
  24.6578751  17.8852520  11.4985857  23.9667168  63.4471092  56.4884605
  23.4066906  62.6717911  56.5270004  24.7426128  63.1584778  56.0079346
  50.7347145  27.1244431  24.9617443  49.8035355  27.0786991  25.1786442
  50.7643318  27.0225945  24.0104389  40.5143242  43.1587143  53.9154930
  39.6979370  43.5691605  54.2005806  40.7642517  42.5909348  54.6444626
  37.7298508  53.0071907  10.8319654  37.4114761  52.2220306  11.2773790
  36.9364853  53.4500885  10.5308924  18.3932209  47.2864151  26.6858368
  17.7379665  47.9344025  26.4270229  18.1837120  47.0850220  27.5978565
  34.1944618  20.2991867  13.1426697  33.6580620  20.2629280  13.9346247
  33.6614571  19.8712654  12.4725809  72.7198715  39.0734406  49.1517296
  73.2971649  39.6737061  48.6798744  72.2488785  38.6035233  48.4635582
  58.3484383  32.2518196  21.1942635  58.9399605  32.4907837  20.4806633
  57.4953842  32.5897102  20.9215660  42.6963806  51.5376358  16.8498440
  42.7686501  51.1618919  15.9724493  43.3314095  52.2538223  16.8567390
  30.3503685  57.5750580  35.4505081  29.7463341  57.5760307  34.7079620
  30.1754341  58.4004097  35.9026413  81.8892975  20.5671234  38.4855919
  81.9635620  21.1934280  39.2056313  81.3051987  19.8863201  38.8196068
  79.0088425  49.1564636  43.5369797  78.6115417  49.1065331  42.6675568
  79.0067368  48.2531166  43.8535118  24.9574337  18.4506950  15.1179552
  24.3238392  17.9047337  15.5834808  25.1232471  17.9811497  14.3004799
  19.5654030  55.7619324   4.3010402  20.2815533  55.9536667   3.6955659
  18.8994064  56.4194527   4.1001625  15.5698509  55.6630478   5.0329576
  15.4833717  54.9435158   4.4076338  15.1692877  56.4125824   4.5925269
  70.1744537  24.6261501  33.2258759  69.7347260  24.8853111  34.0356369
  71.1073456  24.6666660  33.4363747  26.5038624  50.0815353  54.8808784
  27.2110271  50.7208481  54.7946968  26.9514771  49.2422142  54.9877243
  27.6692085  25.9421635  87.6386108  27.8764210  25.6749592  88.5340958
  28.3658466  25.5575523  87.1066284  67.8068619  58.3768845  86.0594101
  67.3858795  59.1373596  86.4602661  67.6269989  57.6570663  86.6641769
  69.3465729  11.4425135  30.5139351  69.7836151  11.1272135  31.3050156
  69.6337204  12.3515558  30.4278030  80.4566422  33.6272278  69.7978668
  80.8874893  32.8077621  70.0409241  80.7926788  34.2691917  70.4233170
  47.6373291  42.3359833  30.4003201  47.1432648  42.0903778  31.1825008
  47.4177895  41.6621056  29.7569485  74.1139145  32.9099350  64.9051132
  73.8461914  33.8232079  65.0075455  73.7195358  32.6361732  64.0770111
  56.9270248  54.8610077  85.7535248  56.4858017  54.5117798  84.9791946
  57.6151352  55.4263039  85.4025574  65.5382385  57.8097343  36.1977577
  65.0354614  57.9045258  35.3887711  65.3250885  56.9305725  36.5106087
  47.5940514  61.2510719  50.2645874  46.8305931  61.1086006  50.8241081
  47.3111038  61.9175072  49.6384621   9.1018009   9.8509808   2.0599971
   8.6538382  10.3875055   2.7139864   8.4080067   9.3183422   1.6711817
   2.1204221  62.2426186  46.7083855   1.5898665  61.6988220  47.2906456
   1.4837353  62.6806679  46.1436081  26.1410751  65.9244690  14.6193466
  27.0329533  66.2623672  14.5380659  26.1994858  65.0186996  14.3153791
  62.6915245  27.1535873  11.0429564  63.2250366  26.5481892  11.5578203
  62.5628815  27.9079361  11.6179705   4.1003323  14.7667170   0.5228885
   4.9076462  14.8876781   1.0227334   4.3875222  14.7236242  -0.3891952
  28.1862450  61.7359657  46.0505104  27.4201508  61.7588120  46.6239281
  27.8227444  61.7368202  45.1650162  81.6047363   4.9066663  65.2530136
  82.4423981   4.4964619  65.4681625  81.0725937   4.7918229  66.0403290
  27.8224125  36.3782120  16.4777927  27.4565392  35.4986420  16.3843784
  28.5431309  36.4059029  15.8484850  33.6998215  44.4326859  26.2228928
  33.6947327  44.0970497  27.1193047  34.5958481  44.7410469  26.0876827
  66.7745438   1.3706558  33.5846214  65.8502579   1.2953832  33.3474388
  67.1931763   1.7343313  32.8044167  75.3288345  15.4015493  29.5447788
  74.9732208  16.2770710  29.6972008  76.2452927  15.4651251  29.8136520
   6.6476278   1.6453658  65.0430069   6.8262253   1.7133933  64.1050797
   5.6927657   1.6646775  65.1070175  39.0411034  22.7108555  42.5574608
  39.6750336  22.0379791  42.8056679  38.5919113  22.3469582  41.7945480
  75.1835785  10.5300341   2.8192794  75.1067047  11.4260197   2.4913609
  74.2854614  10.1989927   2.8244557  11.7744083  19.7602482   3.9472218
  11.7778625  20.6943703   3.7383265  12.6035032  19.4336014   3.5977440
  55.3247910  11.1089344   2.2244473  56.2678108  11.2664442   2.1782312
  55.1414032  10.5334682   1.4818573  27.9574699  53.4631882   9.0344028
  28.4694366  54.2631340   9.1536016  27.0492935  53.7633247   8.9974928
  83.6202316   5.6363354   7.5345063  84.2618027   5.6342354   6.8241415
  83.5369263   6.5579529   7.7792773  66.0595551  23.7670021  64.9046478
  66.7579575  24.3623180  65.1767883  65.4201126  23.8069706  65.6157990
  52.7682610  69.7865372   9.5702181  52.8624763  68.9590225  10.0419931
  53.6230316  70.2090073   9.6545849  54.9690475  24.0928516   9.9960766
  54.4740448  24.6723938  10.5751591  54.9769516  24.5462952   9.1531296
  74.1851654   1.3749002   5.3691082  74.7131577   2.1662900   5.2634816
  74.6447449   0.8679205   6.0384274  82.3543167  14.4815826  62.1846161
  82.4171066  13.8875036  62.9325180  82.8033981  15.2765913  62.4718666
  68.1285706  57.5904884  62.7025948  67.5691147  57.0806313  62.1166916
  69.0196762  57.3963013  62.4119873  38.2893181  66.6527863   5.2590690
  38.6439438  66.8246078   4.3867421  38.3816795  67.4847717   5.7232995
  47.4731064  38.5898895  44.9045982  48.0146866  38.6987381  44.1228867
  48.0890236  38.3248253  45.5876884  73.6913681  13.4348869  30.7127781
  74.2757568  13.0333958  31.3558350  74.2144089  14.1313248  30.3157520
  51.1520462   4.4182076  37.6767159  50.7066002   3.7772336  38.2307587
  52.0674095   4.1383104  37.6750488  29.2841663  69.2849884  12.4523697
  29.9570541  69.9616547  12.3776989  28.5208035  69.6564865  12.0102158
  38.7999954  70.2884979  14.5789585  38.7829933  70.7775116  15.4016466
  39.2808418  69.4872818  14.7864723  15.8080435  66.1241531  48.7167168
  16.6856918  66.4542007  48.5242729  15.5306778  66.6172791  49.4888115
  23.1042328  35.4851303  28.3072300  23.8149052  34.8927612  28.0617161
  22.4978294  35.4512787  27.5673923  39.2498283  69.8297577  86.4731674
  39.5159073  70.6614151  86.8653107  39.1782112  69.2277374  87.2138901
   1.3737390  26.2404537  65.0004730   0.6957327  26.7423992  65.4527893
   1.2075030  26.3968410  64.0708771  33.3487053  35.9935646  54.6726151
  33.4982300  35.3982697  55.4071236  34.2199821  36.3198471  54.4475670
  32.1989250  55.0944138   3.8773856  32.2896614  54.2617111   4.3406401
  32.2345543  54.8579826   2.9505293  44.3547516  66.3005142  86.5736008
  44.7930145  66.2189026  85.7265549  44.9315758  65.8447647  87.1866226
  64.0372162  34.0919914  84.2642822  64.4090118  33.3381195  83.8063736
  63.1410027  33.8278122  84.4722214  10.9933071  61.9028549  65.7665634
  10.6838150  62.0141869  66.6654816  11.4960518  61.0885315  65.7854691
  59.7826271   5.0694757  83.8546753  59.4420357   4.5682669  84.5956345
  60.7326393   4.9682217  83.9134521  58.5156364   8.7715464   4.6314554
  57.9645691   8.6050177   5.3961935  58.0032654   8.4457092   3.8914981
  76.2285385  36.4847565  41.1347160  76.7416687  37.1502838  41.5929756
  76.8263855  35.7429543  41.0423126  73.2275848  38.9659843  59.4298325
  73.4717865  39.7790718  58.9876900  73.2503510  38.3023109  58.7404480
  59.7314758   2.4479904  41.6831856  60.0537186   1.5685344  41.4858360
  60.5233612   2.9688494  41.8168030  21.2961712  57.0579071  84.5261612
  20.6424675  56.4872284  84.1221466  20.9498138  57.9420128  84.4052048
   3.4432652  57.6668472  58.7053566   4.2531228  57.2111626  58.4757576
   3.4873550  58.4918633  58.2220001  18.9996643  63.6203003  81.3481979
  18.4150333  63.6614647  82.1049957  19.8782558  63.5814857  81.7260895
  44.5025749  13.7216682   4.1372781  43.9195862  14.2105331   4.7181101
  45.1455650  14.3674459   3.8444161  59.9107285  14.5818443  18.1463165
  59.2798271  14.6052332  17.4268360  59.5078087  14.0100098  18.7996864
  38.6379585  57.0576363  74.9518585  37.7601280  57.1999550  75.3059616
  39.0282593  56.4057083  75.5339966  30.5224361  47.0950890  87.0090790
  29.7541733  47.0407410  87.5774536  30.5053158  46.2816734  86.5047989
  23.5884132  41.2830238  31.0818653  22.8913212  41.9372864  31.1291580
  23.6529140  40.9369926  31.9719982   1.6355093  21.6672764  60.6677017
   1.9746478  21.1133652  61.3708382   1.3767619  21.0519199  59.9816856
  77.6729355   9.4950552  68.4718781  78.3824921  10.1270008  68.5876770
  77.1061935   9.6294222  69.2314682  61.8362427  26.8036556   1.1326214
  61.6847191  25.9936962   0.6455504  61.9037056  27.4796143   0.4582622
  41.6954346   4.9518399  63.0993805  42.3828392   5.2584357  62.5080223
  41.7403526   3.9972777  63.0443802  22.3943157  60.3039360  61.8726349
  22.5810356  59.4585037  62.2808189  21.8760700  60.0865517  61.0977821
  22.8202820  29.7538128  75.1783905  22.7824841  28.7975216  75.1608200
  23.7553005  29.9559860  75.2115326  64.1687546  67.6652908  85.5475082
  64.1532516  68.5887527  85.7989197  65.0715179  67.5073929  85.2712402
  43.0702438  18.4322395  71.5369644  42.6472588  19.2395954  71.2445755
  43.1844101  18.5496292  72.4800568  24.5710144  28.0342293  80.8024445
  25.3770275  27.5647240  80.5876389  24.3918324  28.5688210  80.0289154
  71.5281830  54.8731079  52.6332207  72.0953217  54.1105499  52.5188103
  71.2550735  55.1038551  51.7453003   0.5537366   5.9012761  76.5764542
   0.1650215   5.2667451  75.9743729   1.3072706   5.4452987  76.9512863
  76.3546524  60.7722816   0.8068433  75.5383682  61.2318993   1.0034785
  76.7138519  61.2352333   0.0499529  83.0325165   8.5368338  33.2319183
  82.4809113   8.9564495  33.8921394  83.3488388   9.2594376  32.6896896
  51.6949043  38.8272972  63.2710762  52.0641785  39.7012329  63.1441879
  50.7973137  38.9866104  63.5629349  37.4742508  62.3106308  10.5484343
  36.8748016  63.0536995  10.4795294  38.3201103  62.7043114  10.7623672
  86.4244232  55.7104797  19.4849319  86.8073196  56.5232010  19.8152390
  85.4799881  55.8648834  19.5057411  62.4934654  40.0655060  38.8839188
  61.9897995  40.4711342  39.5896225  63.3171616  39.8054695  39.2963943
  20.7598152  57.5450211  35.1746254  20.0328674  57.0600204  34.7840424
  20.3431835  58.1406059  35.7974663  50.3074341  22.2980518  21.8753910
  50.0141640  22.8664265  22.5875530  49.6963921  21.5614033  21.8897552
  46.6893806  67.6781616  49.7139549  47.5175056  67.9893112  49.3484039
  46.2470512  68.4719543  50.0147285  33.4768677  44.6126442  13.2668943
  32.5647163  44.7831573  13.5017004  33.4778404  43.7093277  12.9502649
  79.7369156  68.2743759  11.9896555  79.7346344  67.3568573  11.7169275
  79.6344223  68.7666168  11.1751423  76.1252670  62.0047684  38.5918617
  75.5675964  61.2319374  38.6811333  75.7490005  62.4879532  37.8562050
  12.2572470  59.1202431  34.7886543  11.8640175  58.2478333  34.7660942
  12.3216763  59.3777733  33.8690033  82.3903580  68.1296539   9.4685822
  81.7194748  68.8038406   9.3608007  82.1220856  67.4278259   8.8755417
  81.6549530  24.1984367  74.1604767  82.3790131  24.2427940  74.7849731
  80.8891449  23.9910946  74.6959915   2.3099651   2.6044493  80.9917374
   1.9709505   2.1948500  80.1957855   1.7237414   2.3017418  81.6852341
  76.9651642  14.7738457  51.0378494  77.9052353  14.8975821  50.9067268
  76.8731766  14.6155148  51.9773712  23.8108940  46.8106918  87.9296341
  24.6594353  47.1004562  87.5946045  23.4121990  47.6030426  88.2894363
  15.1668406   5.5665274   7.0437350  15.5760489   6.4251237   6.9360662
  15.8893528   4.9444747   6.9585357  42.3689041  67.4026413  29.6418114
  42.3590546  66.6377411  29.0664368  41.6010551  67.2906799  30.2022591
   0.1124089  15.5476818   3.5458572  -0.5258408  14.8346252   3.5663531
   0.8819211  15.1682196   3.1214859  52.2452965  65.0273132  40.3385620
  52.9924545  64.7936020  40.8893509  51.9639168  64.1980209  39.9521294
  17.0162506  40.8639984  85.6239624  17.2166920  41.7693748  85.3865967
  16.3394928  40.5974655  85.0017166  31.8120785  14.9177170  83.7028427
  32.4654541  15.5404177  84.0215530  32.3195152  14.2617188  83.2249298
  45.2009010   3.1765811  33.0843315  45.9306526   3.1442242  33.7029190
  44.4365463   2.9240057  33.6022110  66.7098160  48.6418343  45.2268257
  65.9847641  48.2558327  44.7353516  67.4958878  48.2786255  44.8189049
  52.2550850  55.4136772  67.0123672  53.0328140  55.9252281  66.7894592
  52.5812912  54.7186470  67.5839920   8.6228533  27.1252766  32.1795883
   9.3472548  27.2178745  31.5607986   8.9532242  26.5237122  32.8468246
  41.7365952  42.0635414  56.1786766  41.0877724  41.8835258  56.8590126
  41.9003334  43.0041733  56.2467422  70.0377579  50.5155029  57.3673401
  70.4969711  50.3226051  58.1847420  70.1848221  49.7427864  56.8218918
  38.7549248  71.1004944  55.3475876  39.1414680  71.9161072  55.6663132
  38.4191704  70.6710587  56.1344032  80.8979416  13.5996456  60.1577339
  81.3359375  14.0795794  60.8606262  80.4225388  14.2715178  59.6690559
  42.9681091  15.2596760  23.6881580  42.8814049  15.1098499  24.6295738
  42.2148933  14.8111019  23.3038673  71.6397324  33.0668297  63.2879486
  71.8705673  33.9677582  63.5143967  72.4411621  32.7011299  62.9135056
  39.0452538  64.8169785  41.8163033  39.6319656  65.1908951  42.4737167
  38.1968765  65.2232208  41.9936523  36.0550156  39.8297539  59.9546967
  35.3010139  40.1816444  59.4815254  35.6775780  39.2133408  60.5822411
  71.6142807  60.6633186  18.5346832  72.4909363  61.0364799  18.6267014
  71.3638687  60.4176254  19.4252777  41.3263855  19.7535744   0.2239483
  42.2211609  19.4136200   0.2177667  41.2235260  20.1414299   1.0929818
  76.3183289  29.0293922  56.1785851  77.0767136  29.4859276  56.5428047
  76.6939850  28.3461227  55.6233749  61.0121536  48.4301720   9.2516594
  61.3548546  47.8321304   9.9158373  60.0848808  48.2034988   9.1808300
  20.0900230  60.6784973  84.0703583  19.9332466  61.4836273  84.5637283
  20.8095150  60.8968430  83.4779968  30.3553486  41.6361542  24.9462223
  29.5661373  42.0959435  25.2325306  30.5458889  42.0023537  24.0826111
  48.1309357  39.3371429  18.8338394  47.4961319  39.4590874  19.5398026
  48.8390007  38.8316956  19.2330875  32.1297073  39.5012970  19.6503887
  31.5261040  40.2404022  19.5754433  32.3832245  39.3066597  18.7481270
  43.2963638  50.2014961  30.9086227  43.7965164  49.4658203  31.2619781
  43.4740639  50.9234810  31.5114403  50.0238953   1.8857635  33.3978806
  49.7599945   1.0634886  33.8107414  49.3927231   2.5290709  33.7203865
  63.5150108  26.9959431  38.9577599  63.6004486  26.5058002  38.1400261
  64.3614883  27.4293137  39.0668068  18.9063950  11.6594887  83.2760162
  19.0590420  10.8097477  83.6893845  18.4427338  12.1692057  83.9404297
  14.6709366  31.5941887  81.9811630  13.7244158  31.6287346  82.1194916
  14.7739754  31.1490784  81.1400375  56.7796707  17.1082382  34.1780090
  56.9052773  17.2173805  33.2353821  57.1560669  17.8996487  34.5630150
  84.1732483  45.5124168  14.1041994  84.3586197  44.8120079  13.4786615
  83.5057831  45.1453896  14.6838589  67.3227310  24.9949970  76.0207977
  67.2281876  25.1340752  75.0784836  67.0585480  24.0850086  76.1562881
  40.0507050  52.6534386  43.0872993  40.5715485  52.1295204  43.6959572
  39.1484985  52.3733521  43.2415810   6.5207696  18.5996017  76.8026886
   7.3207898  18.9484520  77.1957550   6.2092953  19.3011208  76.2307739
  52.0051308  56.1012802  29.9804535  52.3592300  55.9566574  29.1029968
  52.7644806  56.3509750  30.5070171  18.5019588   6.6086435  57.0588913
  18.1548729   7.2683249  57.6593781  18.3195286   5.7733526  57.4892845
  78.4515152  44.7868347  33.1012955  79.0426331  44.2244835  33.6018715
  79.0228729  45.2493973  32.4882545  43.1431160  54.1062737  32.8775673
  44.0327225  53.7843056  33.0230637  42.7107544  53.4040756  32.3915482
   3.6405318  52.6835175  79.9262924   4.3441992  53.3324280  79.9275436
   2.9218185  53.1104774  79.4600449  55.8238754  30.9284058  53.5919342
  56.6617508  31.3909264  53.6083984  56.0165863  30.0701790  53.9694786
   0.2886094  59.8674469  87.3318100   0.3505028  59.6958466  88.2714615
   0.4118386  59.0106430  86.9232407  48.3558884  25.5685596  88.7985153
  48.6067505  26.4729271  88.9867096  47.4609833  25.6327057  88.4649506
  78.5876923   3.2545276  34.5648575  78.4206848   4.0788560  34.1078873
  77.8936386   3.1999660  35.2217865  39.2869034  51.2136307  55.2318954
  39.5829659  51.4756470  54.3601570  39.6349678  51.8876305  55.8156815
  47.4611320  22.3284607  74.9973373  46.6337814  22.3033638  74.5166168
  47.4348106  21.5545044  75.5599518  75.3391342  28.2258415  47.9727020
  75.1429443  27.2889671  47.9754410  74.4822235  28.6498585  47.9264336
   5.3838325  11.7379894  20.0573711   4.4644642  12.0036039  20.0784168
   5.3559427  10.7855301  19.9664097  13.4419136   9.8934765   2.7331433
  13.7918034   9.9319305   3.6232729  12.5926800   9.4621649   2.8280313
  34.2057228  48.0773582  56.0197258  34.4832993  47.3918419  55.4120674
  33.4063263  47.7341728  56.4190025  46.6538048  56.8481789  27.0026951
  46.2064972  56.9425125  27.8436756  47.2942505  57.5594635  26.9909458
  54.5845604  38.7534065  54.1143379  54.9446831  38.3660851  54.9121628
  53.6360817  38.7199478  54.2388611   4.2607212  33.1338806  43.5019035
   3.6105807  33.0427094  42.8053131   3.7526054  33.0851135  44.3116379
  22.2813892  21.0662937  78.9097748  21.7847538  21.8125305  79.2455063
  21.8201256  20.2993488  79.2492828  36.3511658  66.5024109  42.6158409
  35.6673508  66.9684830  43.0968895  36.8596230  67.1938858  42.1920891
  41.0861282  16.4374371  38.8908119  40.4995346  16.3264408  38.1426010
  40.5550117  16.8892040  39.5465965  87.0840149  18.9946060  34.5978394
  86.5237579  18.4439354  35.1447372  86.5582047  19.7759266  34.4266891
   2.5236351   7.0275574  45.2780838   1.9624561   7.4158511  45.9493027
   2.4467897   6.0837965  45.4182320  37.3371544  25.9572811  42.0405540
  38.2774696  25.7787762  42.0271149  37.2441902  26.7871380  41.5726547
  54.6601143  33.0882339  54.8237152  54.2708015  32.7611198  55.6346779
  55.0006905  32.3063354  54.3891182  66.9842606  20.7092628   9.9504251
  66.3690872  20.5640125   9.2316122  67.1929245  19.8308258  10.2682934
  80.8100510  48.0042000  67.2101746  80.8580170  47.0506210  67.2781601
  79.8858719  48.1859779  67.0396576  37.3697586  70.3808823  53.2460823
  36.4805145  70.5924911  53.5301666  37.9323578  70.7418976  53.9311981
  30.3205166  69.8104858  20.5244064  30.3503952  68.9715424  20.0644951
  30.1160278  70.4503174  19.8424721  34.7875557  49.0197067  62.6772957
  34.3725624  49.3109169  61.8653793  34.2182732  49.3538361  63.3704796
  52.2704811  59.5403633  48.2661247  52.9125481  60.1574364  48.6171303
  51.4358482  60.0056992  48.3216362  46.5318985  37.0930023  40.2817726
  46.4954071  37.2298775  41.2284317  46.7308884  36.1620598  40.1818657
  79.2734833  45.4979591   8.1045475  78.6094284  46.1611252   8.2928791
  79.5714798  45.7023697   7.2181797  64.9535828  36.4171944  83.7389526
  64.1492081  36.8709030  83.4872360  64.6580887  35.5633850  84.0550613
  47.5962067   3.0914130  34.6576004  47.2494698   2.7947800  35.4990349
  48.2926064   3.7060766  34.8887939  19.9054775   8.8874636  65.9245682
  19.8296776   8.3611345  66.7204742  19.3638420   8.4293032  65.2819595
  84.0038452  59.2480659  61.6154556  83.7588577  59.5259056  62.4980736
  83.1695023  59.1275482  61.1620522  39.5120659  71.2154312  78.4838943
  38.6254845  71.5643234  78.5759888  39.7032013  71.2908020  77.5490036
  52.4651451  53.4016533  52.0618248  52.6231308  52.6747589  52.6642303
  53.3348656  53.7611313  51.8869247   0.6897212  40.0362434  54.2492027
   0.1023413  39.4902573  54.7718048   0.2686328  40.0878525  53.3911476
  72.2881470  70.4570618  36.3411827  72.0702362  70.3540497  37.2675400
  71.4691010  70.7364273  35.9320908   4.8036919  34.6269569   4.0974298
   4.8811750  33.6735840   4.0612745   5.7019792  34.9439926   4.0036278
   5.2644935  58.4605598   5.2044840   5.6537766  58.5164833   4.3318086
   5.9903297  58.6390800   5.8024158  39.0879898  56.0813942  55.1024742
  40.0041733  55.9128265  55.3225365  39.0311852  55.9063950  54.1631241
  57.3479462  70.9396667  36.4133797  57.0024147  71.1316452  37.2851524
  58.2456627  71.2712479  36.4331970  58.1539803  32.3020248  53.9601784
  58.6070099  31.9347210  54.7191811  58.3722801  33.2338142  53.9787407
  65.5790863  44.6075439   1.7725587  66.3475723  44.0652771   1.9503702
  64.9877090  44.4322586   2.5045254  68.3023148   1.8908159  16.8332005
  69.1066513   1.9853942  16.3229752  68.2799454   0.9651072  17.0756779
  33.4978294  37.4676971  86.4327850  33.7288437  36.5563126  86.2532272
  34.1362724  37.9790230  85.9356232  54.6283379  35.2889214  65.9032059
  54.2331314  34.8403778  66.6507721  55.5213699  35.4851952  66.1864090
  72.2073288  38.5128555  38.3926506  71.6576157  37.8245354  38.0181274
  72.5556488  38.9807091  37.6336937  13.7171431  69.4665604  58.5906906
  14.4504318  69.9494476  58.9719276  13.0073071  69.5692596  59.2245789
   3.1020303  35.0509872  45.5209541   2.1836321  35.1374817  45.7764816
   3.1543086  35.4794693  44.6666107  25.1683712  40.5138969  66.7207718
  24.4096146  40.9720612  66.3593826  25.8682613  40.6730537  66.0874863
  45.4299965  52.6770706  32.6559448  46.3401451  52.6280670  32.3636131
  45.4555206  52.3880539  33.5681152  77.7369003  36.3139877  80.0492249
  76.8022232  36.3737335  80.2468262  78.1602097  36.8302002  80.7351990
  25.2505741  41.0507545  74.4557648  25.0472946  41.9548454  74.6956100
  24.4165516  40.6891937  74.1559143  43.7871513  22.3977947  14.4847527
  44.3280945  21.7817860  14.9788647  43.9204063  23.2383709  14.9228268
  55.2501984   4.8354535  70.3328476  55.0016747   5.6873131  70.6917343
  54.8227119   4.8021541  69.4770584   8.4923382   3.5916855  30.3101006
   8.2657032   2.8297613  29.7768650   7.8483500   3.5885236  31.0182686
  59.5521507  60.9236832  51.2235489  58.6892471  60.5717087  51.4420547
  59.3709412  61.6458168  50.6219521   0.2593491   3.5167866  82.4701462
  -0.2181674   3.5454161  81.6410599   0.1108617   4.3774295  82.8619080
  61.6569023  15.5754261  74.0372925  61.7297859  16.4542084  73.6649246
  62.4530716  15.1274300  73.7515564  12.7532368  70.0522919  69.2319336
  12.2736359  70.5912476  69.8610153  12.1667690  69.3181610  69.0493317
  43.8446960  71.5628815  87.5135040  43.7302094  70.6540070  87.7911377
  43.2156448  72.0554123  88.0407028  42.5730972   2.4095948  79.9345932
  42.8520126   1.6753312  79.3875122  41.6192551   2.3359723  79.9661713
  73.0067291  64.9511337   1.5500933  72.1027451  65.0379944   1.2476043
  73.3259354  65.8513794   1.6125585  24.2884541   5.5586987  10.6769428
  23.7631741   6.3372121  10.4919262  24.2272205   5.4483948  11.6257915
  66.4763107   6.8558655  68.7572250  65.7846298   6.3831306  68.2942734
  67.2459946   6.7647457  68.1955109  45.1100578  25.4591236  67.8277206
  44.4566002  26.0049305  67.3903198  45.0590935  24.6164799  67.3765182
   2.2816057  34.0905876  74.4198608   2.9277296  34.4163818  75.0464478
   2.4932549  33.1626320  74.3182144  67.1190109  66.2711029  57.5412292
  66.5262070  66.7693863  56.9786263  67.7117004  66.9281845  57.9061890
  79.2011719   1.1022303  45.6917686  78.7227173   0.2811975  45.8067474
  78.7992859   1.5080920  44.9236526  83.9576492  16.7165184  50.7935791
  84.8259354  16.3953552  50.5503426  83.8180847  17.4786835  50.2315674
  34.4910393  44.3004875   1.4565786  35.1871338  44.5856857   0.8646768
  34.9334297  44.1510124   2.2921493  46.3931999  22.5344257  57.9301109
  46.5879555  23.3970070  58.2965164  47.2161255  22.0512199  58.0045471
  23.0865402  46.4038315  42.0771446  23.3067532  46.5717583  41.1608810
  23.6052628  47.0406189  42.5687294  26.2842560  25.7593575  15.4087801
  25.7902145  26.3545570  15.9726000  26.4563408  26.2677746  14.6162338
  47.8363457  51.7667809  37.1641045  48.5441971  51.1441917  36.9981041
  47.8283501  51.8722801  38.1154404  81.3163757  31.7891445  45.6924782
  81.6652679  32.4127731  45.0556183  80.9386444  31.0891056  45.1600380
  80.4495392  60.2882729  49.7950706  79.6014938  59.8535919  49.8850899
  80.9611511  59.7020874  49.2375183  75.0007324  39.1363411  38.9834557
  75.7062073  38.4902306  38.9506454  74.2046356  38.6163559  39.0933571
  59.2721825  35.0730286  61.0883980  59.9226227  35.7159576  61.3708839
  58.6281624  35.5835915  60.5976830  76.6962128  30.8704414  75.5216064
  75.8050995  30.6988754  75.2171173  77.1666794  31.1541996  74.7377853
  45.2790565  22.8434372  72.8916397  45.9590263  22.8584747  72.2181091
  44.8501205  23.6959782  72.8180237  75.8568268  20.6848927   8.8754749
  76.4453354  20.9292641   9.5897360  76.3872223  20.1242027   8.3093128
  24.9202824  24.3961926   5.5380111  25.0631371  23.7233963   6.2037225
  24.9468193  23.9208946   4.7075772  44.6435509  43.8293839  30.7122002
  44.5927544  44.2996025  31.5443954  44.6581955  42.9049187  30.9599590
  18.6325111  47.7804108  29.4258881  19.0422611  47.5428772  30.2577038
  18.0925140  48.5428581  29.6339951  10.8646078  31.4498062  58.8478241
  10.0368977  30.9882107  58.9822044  11.5233765  30.8813152  59.2466621
  36.3607063  54.4724388  86.6722336  36.4869881  53.5303078  86.7848206
  35.8840752  54.7455673  87.4561081  72.8154602  56.3584671  69.9317780
  73.6512527  56.0128365  69.6183777  73.0563583  57.0960426  70.4923019
  51.2430573  32.8155174  58.0930481  51.5461693  33.5098763  58.6780472
  50.4952850  33.1983337  57.6342201  52.1452522  11.2850590  68.6005936
  52.2451744  11.4336529  67.6602936  52.7178078  10.5411472  68.7876968
  66.0832443  38.9847450  59.2872658  66.9199677  39.4489632  59.2622871
  66.1548767  38.3246574  58.5977821  28.6282558  23.2705345  78.3307648
  28.1273155  23.8751030  77.7832336  28.3615322  22.4007626  78.0331268
  84.1964035  61.9173164   0.3062609  83.5385818  62.1164742   0.9724720
  84.3819275  60.9856567   0.4238312  11.2019043   8.5865068   3.3728690
  10.5076036   8.8022604   2.7502694  10.8520079   8.8520842   4.2233238
  83.2050858  50.6205940  53.4190865  84.0427017  51.0814400  53.4665375
  83.4270020  49.7551384  53.0756149  86.6318817  24.2568398  13.6277752
  87.3455505  24.4307804  13.0140524  86.2276611  25.1121426  13.7736845
  70.7228241  62.3993797  27.2991066  71.6022034  62.0562592  27.1403713
  70.1697540  61.9436340  26.6645718  37.4782066  44.3974609  26.1170254
  37.4483261  45.0693169  25.4358883  38.1477242  43.7824020  25.8175583
  31.4653130  41.3847389  16.5440521  30.7898674  41.9476013  16.1656456
  30.9913330  40.8174400  17.1521206  57.8180695  21.9293747  44.3699837
  57.7846794  22.5845146  43.6729088  56.9321365  21.5683689  44.4020195
   8.4910765  59.5610237  19.6781120   7.7995324  58.9055367  19.5868206
   8.1051531  60.2410316  20.2302761  54.8000107   9.2118988  74.1169662
  54.5819435   9.6256905  74.9521027  55.7353401   9.0191841  74.1821594
  27.5839634  26.5762100  81.7732315  27.3709278  25.6467247  81.6901321
  28.5355587  26.5956783  81.8748093  69.4631348  68.6642303  73.3147430
  68.7130737  69.0746689  72.8844147  69.9785461  69.3982086  73.6491928
  42.9592552  27.3659000  67.5766907  42.1032944  27.4791183  67.9899063
  43.5321274  27.9758759  68.0414200  59.8331566  29.9133606  27.6689472
  60.1055489  30.1426201  28.5574722  59.0082932  29.4419136  27.7854424
  34.6402321  58.1345711  16.7170372  35.5483551  57.9962616  16.4479427
  34.5093422  57.5229721  17.4416370  75.2644806   6.3981032  40.1110420
  74.4466553   6.2755718  40.5930977  75.2360611   7.3091626  39.8188171
  75.1006622  40.2582321  14.1426945  75.3120575  40.4203033  15.0620842
  75.1966400  41.1120415  13.7207546  36.5084839  60.8560219  47.9802666
  35.9558830  60.2857056  47.4458466  37.3267174  60.3698387  48.0820236
  66.3084564  53.8459206  85.9244080  65.8585205  54.6674652  85.7272873
  65.6881714  53.1647911  85.6645050  47.0570908  43.7405014  84.3145523
  46.9822273  42.8583145  83.9507294  46.6190453  43.6872444  85.1639709
  62.4970932  68.1495895  24.7027893  61.9403572  67.4319534  25.0048962
  62.8672028  68.5193710  25.5043602  66.3116684  37.4136086  57.1775894
  65.8513794  37.2905235  56.3473969  67.1991806  37.6671486  56.9240875
  52.4867134  20.8275032  40.7649765  52.4348869  21.6219597  41.2963753
  53.3460464  20.8752079  40.3460426  71.5289917  55.7552032  13.5913830
  71.4602661  54.8175964  13.7713852  71.7626495  56.1443787  14.4341059
  52.4010735  25.2995205  38.1768303  52.4864197  26.2353687  38.3588715
  52.2265472  25.2533112  37.2368126  55.7946472  17.9745865   6.7946210
  56.5624962  17.6034393   7.2292347  56.0829773  18.1370525   5.8964548
  15.9514704  13.8534889  78.4577408  16.2037868  14.1642914  77.5882721
  16.7199936  14.0193300  79.0037231   6.3527722  59.0789909   2.6595769
   6.1205807  59.2596054   1.7486999   7.2933364  59.2506218   2.7055428
  40.4137650   8.4868135  80.2400970  39.6866531   8.6350737  80.8447113
  40.1266022   8.8843756  79.4180756  50.6583443   1.7635069  74.2058182
  50.4159012   0.9482940  73.7666321  49.8975754   2.3329320  74.0908279
   9.4377003  37.5553093   2.2335315   9.2241726  37.9223938   3.0913696
   8.9005919  38.0550728   1.6187266  37.8384666  63.0584602  53.9025192
  37.1040802  63.6691551  53.8396225  37.4352112  62.1922340  53.8453674
  76.2814255  50.8448105   2.1709218  76.7191010  51.6058922   2.5522664
  76.0168915  50.3178864   2.9249783  61.2376785  25.5817661  86.2011719
  61.7084923  26.3036537  85.7847061  61.9267311  25.0022011  86.5260468
  15.1120605  60.1004448  11.7881031  15.6821527  59.4883499  11.3227358
  15.2748308  59.9223480  12.7143965  32.5138321  67.7420349  77.6624908
  32.1686554  67.5980911  78.5436096  32.1108055  68.5624695  77.3784332
  26.9421139  31.6076527  63.5261879  26.7496891  31.8047447  64.4429016
  26.0824356  31.5162354  63.1153030  74.4970016  49.3359947  13.1564398
  74.7874908  49.9116631  12.4490156  73.5518494  49.2563972  13.0276299
  36.4062767  12.8136549   3.4356022  36.6794052  12.7567167   4.3512387
  35.6960373  13.4553623   3.4369841   0.8834972   8.9394798  25.2741680
   0.8940331   9.8412981  25.5948639   0.1015607   8.5538845  25.6692924
  82.9508667  56.8216858  44.9818993  82.1952896  56.3585129  44.6202278
  83.2810593  56.2420158  45.6683311  59.0874023  65.2061539  28.0961437
  58.5387535  64.6722183  28.6707153  58.7682343  66.0996628  28.2226791
  34.4259224  67.0654602  53.1021690  33.8435211  67.4088898  52.4246025
  34.9265327  67.8265686  53.3960037  34.0669441  52.7115631  47.5810890
  34.5025368  52.4492149  46.7701225  34.6635437  53.3454666  47.9791718
  61.9931450  62.7466965  33.8429260  61.6592216  62.4580383  34.6922798
  61.3559875  63.3949242  33.5428085  53.6902924  16.0836239  67.0257645
  52.7407532  15.9655056  67.0002441  53.9230118  15.9550734  67.9453049
  56.9343796  16.1937466  59.4902954  57.6422005  15.9253378  60.0761108
  56.4064598  16.7971096  60.0132523  59.4500351  67.0602188  14.1965780
  59.7794724  67.5201569  13.4244652  60.2377357  66.7813110  14.6634483
  32.6420517   6.9405642  37.7029266  32.1707764   7.0982003  36.8848305
  33.4405441   6.4854603  37.4354897  56.1593018  39.7780914   1.1372066
  55.7095222  39.0447235   1.5568455  55.6911697  39.9056816   0.3120982
  73.9530258  48.9451370  48.9604073  73.6636658  49.3369560  48.1364059
  73.1437073  48.6756744  49.3947144  63.9967461  24.9377003   6.3316765
  64.2613678  25.8437557   6.1727109  63.5741081  24.6652088   5.5172086
  59.4566841  56.4896851  85.5797348  59.5046654  56.7462006  86.5006714
  60.3498650  56.5997124  85.2536087  76.2899933  58.3493118  25.8062439
  76.3736038  57.4442749  25.5059986  76.0279236  58.8373833  25.0256424
  56.2426872  34.8991890  10.0143118  56.6624031  35.7530975   9.9098749
  56.6243706  34.3585205   9.3227701  25.8320618  20.8228912  16.2239227
  26.7790756  20.8630829  16.3572693  25.6782627  19.9511833  15.8596373
  15.5657082  64.8299713  82.4047241  15.6248016  65.7068253  82.7840271
  16.4758549  64.5618515  82.2783203   2.5717964  61.8789024  64.5406723
   3.1504958  62.4537354  64.0397644   2.3729618  61.1587791  63.9422417
  65.1050262   2.9297137   0.7197871  65.6416245   3.7025354   0.8959611
  65.6746674   2.1896729   0.9297277  58.2046165  16.6900654  21.0229206
  59.1579781  16.6575985  21.1021538  57.9274712  17.2942066  21.7117138
  81.6699982  47.7581863   5.2842126  80.9436035  48.3737221   5.1857357
  82.2792587  48.1994209   5.8761063   9.1540661   6.1862464  13.8104315
   9.3089008   6.9951000  14.2982979   9.5290298   6.3526621  12.9455967
  29.0461998  45.9432983  74.5537262  29.6572132  46.5018883  75.0342178
  29.2101307  45.0628700  74.8916550   8.8842192  43.8997803  73.3507309
   9.1326561  44.7784271  73.6379318   9.4914074  43.7000732  72.6382217
  62.4157791  40.7198906  24.9135838  62.9388847  39.9787636  24.6080933
  62.6551476  41.4391174  24.3290749   5.5854406  28.6898842  41.9502831
   5.7929354  29.1851158  42.7427025   6.0920739  29.1184711  41.2604523
  73.3545990   2.2353101  27.6363163  73.1315308   3.1107440  27.3199501
  72.5598755   1.7204186  27.4965553   3.4432468  10.8642921  23.5223446
   2.5272577  10.7913990  23.7904530   3.8090546   9.9939842  23.6803989
  39.3149796  53.9824142  65.7336578  39.1035004  54.1579361  64.8167572
  38.9805412  53.0995979  65.8918381   9.3603745  56.5444527  69.4395065
   8.8135834  56.6824112  68.6660614  10.2080736  56.9214363  69.2038803
  82.1340485  12.2282305  63.8949356  81.5136642  11.8749771  63.2573090
  82.7909927  11.5395555  63.9968452   1.0140868  35.7751350  22.5041962
   1.9556381  35.8883858  22.6341476   0.6270772  36.5840149  22.8391151
  52.2302551   9.2332973  55.4775925  52.1157379  10.0076761  56.0284615
  52.9740524   8.7717505  55.8648529  55.8783112  36.9289703  51.5449486
  56.0183487  36.5288925  52.4031792  56.2739334  36.3144684  50.9268036
  39.9318237  42.2971878  72.7139130  39.1984406  42.5756264  73.2624130
  40.5582314  43.0190048  72.7670670   0.9834270  59.9871979  53.2986259
   0.8763904  59.2976608  53.9538460   0.2984919  59.8126602  52.6531563
  80.5368576  39.1181831   0.1605691  79.9088440  39.5439301   0.7441489
  80.7940903  38.3219566   0.6254193   9.2031956  49.9327888  82.7334137
   9.2509241  50.8155746  82.3664703   9.8879013  49.9139900  83.4020386
  51.3032074  62.9383850  60.1067924  51.7526016  62.9673767  59.2621422
  51.1606026  62.0061073  60.2703514  68.4032059  57.4808235  53.2602730
  69.3315277  57.3402252  53.4465332  67.9922638  57.5406380  54.1226997
  37.0586586  10.1296825   4.8794584  36.7302322  10.0168886   3.9874682
  36.6343040  10.9288578   5.1916671  18.0392666  27.1449261  17.2280769
  18.8917160  26.7585220  17.4287052  17.5328293  27.0391331  18.0334110
  27.1649075  39.7299385  83.8833160  26.2932663  40.1177139  83.8051834
  27.0832672  39.0993767  84.5988312  54.4989014   4.1014733  24.0411816
  54.9411583   3.4525347  24.5884666  54.4715195   4.8914127  24.5810680
   9.3141661  40.1537323  54.7702637   8.3644819  40.1585999  54.8898849
   9.5831280  41.0541306  54.9524078  74.4201584  60.0268288  31.1991005
  74.7465210  60.7971649  31.6641788  73.9708633  60.3824730  30.4323654
  81.6440125  55.0931396  16.6866226  82.4117508  54.6436768  17.0398846
  81.7000427  55.9795036  17.0436192  43.6180000  18.4037418   6.5778832
  44.2560043  18.0237579   7.1818638  43.2324333  19.1325512   7.0641036
  55.8697319  53.6478615  68.6207581  55.7602386  54.2252388  69.3763275
  55.8366432  52.7643890  68.9876556  53.8540115  14.0031786  29.3927441
  53.4175034  14.7596483  29.7844639  54.7438622  14.3066549  29.2130127
  59.3729897  60.9020844  70.4320602  59.0529900  60.7373505  69.5450974
  58.6723671  61.4024582  70.8503723  68.8514862  21.7998199  24.7218533
  68.2598190  21.5424767  25.4289150  68.6366959  21.2066288  24.0019760
  63.6780510  10.4148579  80.9885406  62.7714729  10.6112404  81.2247238
  63.6319122  10.1333294  80.0748444  34.1140900  29.0893116  18.6264839
  33.7620316  29.9028893  18.2654037  33.3833504  28.7069340  19.1123238
  52.4920006  56.2203445  34.5658493  52.9242477  55.3675804  34.5190582
  52.3465309  56.3641434  35.5009384  75.5380249  63.8077126  30.0243816
  75.0790482  64.2068787  30.7634640  76.3047867  63.3896027  30.4161644
  81.6931458   7.0884442  50.6933403  81.7394104   6.9624691  51.6410866
  81.8222351   6.2128615  50.3287544  66.5233612  66.5800171   3.0715809
  67.0920334  66.6600418   3.8373742  66.7243958  67.3517990   2.5422668
  74.8714600   3.1546602  15.2046957  75.4583282   3.7699606  15.6442633
  75.1756058   3.1402683  14.2972155  24.8470993  63.1775208  22.9598427
  24.6442909  64.0643845  22.6622295  24.2646217  63.0362625  23.7061634
  64.2068939  47.7552681  56.8171310  64.4345627  48.2020226  57.6324883
  63.2859993  47.5168915  56.9237061  22.9700813  61.7718048  84.2858047
  23.0562534  61.3418808  83.4349365  22.6324806  62.6436539  84.0805283
  73.9008255  25.1539879  79.7003326  73.7015152  24.2182350  79.7299042
  74.2866669  25.2894611  78.8348846  82.7793045  29.8765984  76.1791992
  82.5159607  30.6649723  75.7044907  81.9790802  29.5791759  76.6121140
  53.4379997  29.1630974  41.3291588  52.6894913  29.6417217  40.9729462
  54.1982384  29.6904392  41.0838394  76.5934753  23.3873100   6.4793520
  76.8750381  23.8489628   5.6895213  76.3448410  22.5157223   6.1715436
  48.2188454  24.5614281   7.4263268  49.0489082  24.2085705   7.7468219
  48.4176674  24.8787403   6.5454092  37.9828720   2.7390745   7.6118269
  38.1825638   2.8917911   8.5354252  37.8995895   3.6157382   7.2366509
  39.1311035  27.3887348  84.6909866  39.1849022  26.6413631  84.0953598
  39.5974846  27.1030102  85.4765320  43.0910645  40.6345062  77.9089661
  42.9960747  41.4530754  77.4219818  43.5286560  40.0417099  77.2979507
   9.2331381  11.7404041  10.8082037   9.1693792  11.6937876  11.7621393
  10.0459557  12.2190638  10.6455898  62.8534737  30.2715874  27.3067436
  62.0096512  29.8294525  27.4000950  62.6479912  31.2018623  27.3994675
  51.3414383  55.2452812  46.7375984  51.0280113  55.2577324  47.6419449
  52.2921371  55.1649055  46.8146896  71.6055145   9.3338671  28.9838486
  72.2665024   9.5360727  29.6459980  70.8760223   9.9193478  29.1870327
  58.0265007  23.4301491   0.4647750  57.6628647  23.7257481  -0.3698634
  58.9738312  23.5143070   0.3565300  78.1312485  70.0123596  61.3176384
  77.3075104  69.5756226  61.5343361  78.2861786  70.6085815  62.0502663
  38.5487518  43.4945259  74.9371643  38.3654327  42.5643272  75.0689087
  38.3930244  43.8929558  75.7934570  37.0222206  48.9670029  54.1549530
  37.8849907  49.1921654  53.8068771  36.4332657  49.0453796  53.4044724
  64.3779449   4.9239249  80.3613281  64.7123108   4.2839394  79.7329636
  63.8020897   4.4182172  80.9348145  80.5888443  47.0139885  51.1548958
  79.8135910  46.4683914  51.2873039  80.4555511  47.7641907  51.7342567
  42.7373657  36.0177727   0.5469781  42.3595963  36.6294556   1.1789321
  43.4134865  36.5248413   0.0975638  48.0953369  48.6502914  13.9102278
  48.0969124  48.0404968  13.1724081  48.2916336  49.5011559  13.5181475
  78.8005753   0.6318527  55.2259254  78.2547379   1.4159408  55.1667557
  78.5057983   0.0796099  54.5017929   9.7127008  48.7992744   4.1931839
   9.1962900  49.5302887   3.8538191  10.1167145  48.4108315   3.4172218
  39.9533768  34.2943115  12.2789469  39.5488091  34.1626778  13.1364021
  39.9899101  33.4185257  11.8943672  28.1459370  37.4966469  21.4555187
  28.3555717  37.6909447  20.5419903  28.8155441  36.8686447  21.7265720
  83.4817429   5.5541320  88.6758575  83.5585175   6.5042939  88.7626266
  83.2790375   5.4136910  87.7509689  77.1990051  60.4540901  71.5779953
  77.1055603  59.5704803  71.2220001  78.0982971  60.7039757  71.3657074
  79.3160400  24.7092762  18.0528698  79.2598343  24.3824787  18.9507980
  80.1593018  24.3881588  17.7334576  22.2501030  30.7865810  81.9403610
  22.5424824  30.0862045  82.5236435  22.6393661  31.5809402  82.3060074
  50.1479416  39.0307350  59.9786301  50.6394310  38.6630821  59.2441254
  50.3293762  38.4386559  60.7085304  73.0783539  12.9642420  19.4751225
  72.2622147  13.4484682  19.3499355  73.7518539  13.6416798  19.5360241
  58.2987671   0.9327132  86.9699554  57.6729584   1.6536649  87.0394058
  58.3323021   0.7339651  86.0342178   6.3055062  50.2221222   1.7425891
   6.4336543  49.2749214   1.6914383   5.5951414  50.3339424   2.3743408
  71.0944366  34.7435760  86.0154572  71.7686996  35.0983467  85.4360275
  70.4081268  35.4107933  86.0209961  69.5898132  42.3024521  54.6685448
  69.4569550  42.5740585  55.5767365  68.7971649  41.8140831  54.4462051
  53.1163292  44.6335793  29.6225719  52.3345146  44.4020576  29.1211796
  52.7802887  45.0964470  30.3900738  65.1018829  71.4153748  64.9414597
  65.2818146  70.8246078  65.6727905  65.6611328  71.0967407  64.2329788
  29.0928402  43.6372185  28.1910572  28.7305717  43.5004616  27.3156776
  29.8047771  44.2635765  28.0604763  19.1638718  68.1095276  67.8575134
  19.3043747  67.2472229  68.2485657  19.6128502  68.0656967  67.0132751
  39.9454880  46.8479118  48.8748131  39.4845467  46.0580101  49.1573410
  40.6738319  46.9331741  49.4900208  66.5581131  14.6348381  41.4806900
  66.8733063  15.1907282  42.1933441  67.1805801  14.7823296  40.7686424
  56.8148117  28.9886379  60.0468826  57.2808571  28.8507080  59.2222557
  56.5583458  28.1099834  60.3269196  68.3259735   7.8659391  24.4646130
  69.0874557   7.4873967  24.0252037  67.5751572   7.4336867  24.0575962
  38.4988251  54.9021988  46.8675385  39.2557106  54.9360695  46.2825508
  37.7449951  55.0290642  46.2914543  64.2366562  19.1925869  71.0897217
  64.5693588  18.4559288  70.5770111  63.7601013  18.7851696  71.8130112
  84.2193832  23.5844078  16.2023640  85.0677338  23.2614021  16.5060120
  84.0198288  24.3174534  16.7846470  -0.1488977  64.5349197   5.4130039
  -0.2281849  63.8689346   6.0959473   0.7850114  64.5536194   5.2039680
  59.9227982  63.2799988  42.7586975  60.5814438  62.5854530  42.7538490
  60.2860832  63.9585648  42.1896591  54.0754738   3.2673545   3.8860083
  53.1568108   3.5353303   3.9078014  54.0477028   2.3335993   3.6772940
  70.1829529  17.3951855  77.3921509  70.1311340  16.6960278  76.7404404
  69.2708054  17.5912647  77.6061020  67.3507538  54.9770699  64.0885239
  67.4152679  55.1689491  63.1529732  67.0479965  55.7960815  64.4806824
  50.9369545  63.4970474  49.1189919  50.1949196  63.9943657  49.4629288
  51.4692764  64.1472855  48.6606712  59.1695366  16.4652882  44.7084084
  58.5320892  17.1786575  44.6768150  59.9474678  16.8566475  45.1057625
  70.7036438  11.8272181  67.5079117  71.0987320  11.0131836  67.1956863
  70.4537506  12.2935324  66.7101974  26.9739819   0.2412874  37.3959961
  27.7765846   0.0785517  36.9004402  26.2718525   0.1477237  36.7521858
  75.9098663   2.3475425  72.2796173  75.1501999   2.7095749  72.7357712
  76.0052567   2.8957560  71.5007782  46.0262260  68.5053940  88.1613770
  45.5620461  69.2742691  88.4924393  45.4231529  67.7777405  88.3132401
  27.8093014  22.4817162  73.6155090  26.9434261  22.6252575  73.2335587
  28.2888737  23.2895679  73.4321594  46.1802025   4.8209987  72.4960480
  46.5174446   4.2262964  73.1659927  46.8552742   5.4943500  72.4117432
  58.8011703  22.1616364  40.8518639  59.6215820  22.6287594  40.6939163
  58.4455948  22.5633831  41.6445808  15.4727030  36.3739433  82.3734894
  15.6688795  36.8056984  81.5420303  15.6951027  35.4549408  82.2244873
  64.4826660   9.4022064  20.5166759  64.1610107  10.0242338  19.8641052
  64.5433731   8.5710421  20.0458126  21.9504833   2.7160554  85.2046890
  22.1212654   3.4879992  85.7442856  21.9530029   1.9858738  85.8236084
  28.6227169  56.0037880  46.0545197  28.3743763  56.3009911  46.9298630
  27.8973122  55.4444656  45.7767105  48.1911240  26.7963753  23.2898617
  47.2625237  26.5682583  23.2462788  48.2003899  27.7513618  23.3542538
  37.5926552  54.9177284  13.7205544  36.9129562  54.4462471  13.2389441
  38.3540688  54.3385124  13.6890297   9.3886919  46.1369476  10.9271479
   8.8738041  46.9436646  10.9090014   9.5027447  45.9048233  10.0055513
  68.9979553  56.8418846  77.3833694  69.6278458  57.0927505  76.7077026
  69.4945374  56.8824348  78.2006760  41.0634422  62.4090309  28.3681583
  41.2677269  61.8099747  27.6500816  40.4762001  61.9104500  28.9363079
  46.0710983  56.2532120  63.7767410  46.8988380  56.6482925  64.0505829
  45.6133270  56.9539146  63.3123169  83.4390793   2.6755731   7.1078010
  83.8180161   3.3636837   7.6547427  82.6693726   2.3798575   7.5939445
  57.5914001  58.8357773  15.3366547  57.0623665  59.3194084  14.7022591
  57.8089294  59.4815140  16.0089149  42.2650871  17.6198578  16.4204559
  41.9425354  16.7698612  16.1209602  43.2116356  17.5021496  16.5005932
  77.7149200  18.1473522  78.3685760  77.9220505  17.8998032  77.4674377
  78.3489456  17.6667061  78.9007645  71.1772995  66.3512268  34.8779259
  71.6989822  65.5490112  34.8548393  71.6268082  66.9465866  34.2781525
  73.7556458  43.9065247  32.2155228  72.9091263  43.5733986  32.5132751
  74.2456818  43.1239471  31.9631939  13.6587420  47.0541840  51.4391060
  14.0667639  46.7690468  52.2566948  14.3605433  47.0020332  50.7902718
  33.6148224  65.4227905  60.5316772  34.4242249  65.4856720  60.0245819
  33.5690842  66.2487946  61.0132027  37.8867416  53.8516121  30.6627750
  37.3531075  54.5895309  30.9576359  37.7961121  53.8561440  29.7098866
  55.1659966  24.5432949  30.0388126  55.8257141  24.6945324  29.3619595
  55.6689682  24.2754917  30.8079262   5.4743114  54.1074409   0.4978397
   5.6843767  54.9647751   0.1275889   4.7148132  54.2679749   1.0578606
  25.4772396  11.6778231  88.6743469  25.0824661  12.5494766  88.6497192
  26.4148216  11.8363380  88.5645981  71.1506119   4.5399761  66.8828812
  71.7343445   3.9716513  67.3853683  70.4096222   3.9792428  66.6532288
  37.0904198  25.0409336  16.8990993  36.9334221  25.9771042  16.7759342
  37.4147072  24.7388077  16.0506954  41.5456123  28.4763184  22.7485886
  40.7146530  28.3180256  23.1965618  41.2936554  28.7636814  21.8709927
   6.8494687  53.3555717  65.6911163   7.7418146  53.6265945  65.9067459
   6.3187661  54.1380157  65.8406677  28.8843288  68.2059250  47.8720627
  29.4504204  68.4888077  47.1539040  28.0839806  67.9049301  47.4418564
  70.5805588  66.8185043  71.6246109  71.4674454  66.6839752  71.9586182
  70.2641144  67.5926285  72.0902710  84.7027740  68.0866013  39.1535797
  84.9557114  68.8481293  39.6754303  84.7298126  68.3968201  38.2484474
  86.6467285  52.6041260  42.7613182  86.7628708  53.5328712  42.9617538
  85.7935104  52.3833618  43.1348381  27.1419735  10.3574152  79.9416504
  26.8704681  10.3406963  79.0239182  27.2336903  11.2877350  80.1473770
  44.6917915  65.8991623  43.8065720  44.3883476  66.2350006  42.9631424
  44.0982475  66.2902451  44.4476547  53.8749695  23.8233089  75.5401077
  54.1501617  24.7218800  75.3582535  53.5397453  23.8521900  76.4362183
  10.2785511  55.1461830   8.9241314  10.4022646  54.2980652   9.3503056
   9.3298998  55.2295570   8.8274851  32.0822487   3.1732566  15.5928497
  32.0944633   3.4416080  14.6741161  32.2406273   3.9815083  16.0805759
  44.1245613  39.5945091  17.5688381  43.7070808  38.8697319  17.1033897
  43.3968735  40.1481781  17.8519402  21.9469872  38.4536171   1.2539973
  21.1605072  37.9812698   1.5270666  21.9616203  38.3637581   0.3011369
  53.7546997   1.0460118  39.7178421  54.2466393   0.2822996  40.0194511
  53.3057823   1.3660601  40.5003204  58.4961510   8.0204544  41.9247513
  58.1236305   8.5359068  42.6401291  58.4993858   8.6169682  41.1761551
  16.3019676  22.2579937  23.8900070  16.8187180  21.5537529  23.4985447
  15.4258947  22.1458015  23.5210342  64.6219940  19.9539509  13.5610189
  63.7931213  20.0782051  13.0986643  64.3736343  19.5548401  14.3948431
  67.3749466  54.3682404  40.8897591  66.5344086  54.6120834  41.2773972
  68.0076599  54.4814873  41.5990410  54.5259476   4.8583350  67.6518860
  54.3138504   5.1298075  66.7588272  55.3802986   5.2533965  67.8257828
  27.1035423  58.0632515  70.0425949  27.0401306  58.4825211  69.1844406
  27.2821522  58.7827682  70.6480865  10.2467480  32.0166740  25.4518986
  10.9412384  32.4688110  25.9309464  10.3276291  31.1013470  25.7199726
   7.9876599  10.3816299  79.1879501   7.6734867  10.9172564  78.4595032
   8.8846292  10.6811867  79.3360825  71.8004990  39.2629585  70.2779465
  72.0537796  39.4124985  69.3670578  70.9299469  38.8688393  70.2228699
  71.0526962  11.0071735  26.1641903  70.9430389  10.7573032  25.2467098
  70.2030487  10.8244734  26.5653782  55.2660446  18.8533573  66.5216980
  56.0069160  19.0939331  65.9654083  54.7059860  18.3203106  65.9574051
  32.5863495   0.9178433  48.8843575  32.4669876   1.8580285  49.0186577
  31.9417324   0.6877425  48.2152138  50.2813110  50.3461761  12.4483051
  51.1152573  50.7842712  12.2784872  50.4382057  49.4322243  12.2110090
  10.6655273  23.7893581  71.1497192  10.4729071  23.2535248  71.9191437
  11.3591394  24.3824635  71.4384460  85.0111084  14.4775152  56.3676414
  84.6302032  15.3278503  56.1483841  84.6735153  13.8837643  55.6970253
  46.5400658   5.7093873  52.0933914  46.3247299   5.6759486  53.0254555
  47.3073425   5.1440535  52.0044022  83.1889877   1.9928988  40.5631561
  82.9867477   1.3131232  39.9203224  83.9467239   2.4498894  40.1981544
  76.1858826  15.6895657  14.8139706  75.6463013  15.1446695  14.2411070
  76.3284149  16.4938374  14.3149080  58.3630562  60.2899895  88.7763672
  58.6020966  60.7410812  89.5860596  59.2000122  60.0945587  88.3550110
  17.7181854  22.3925247  78.4230270  17.9743290  21.6053066  77.9424896
  18.3140411  23.0712128  78.1058960  63.3676338  59.8443489  23.4917469
  63.4747696  59.7908134  22.5420685  62.9250908  60.6807404  23.6360836
  39.1782379  56.9055061  12.6422377  38.8768158  57.1956711  11.7813187
  38.4193192  56.4664116  13.0262537   8.2103710  58.9652596  56.9545364
   8.5165186  58.7616653  56.0707626   7.2751803  59.1403313  56.8496590
  66.5103760  66.0241318  24.0409050  67.0912933  66.7711563  24.1848621
  65.7176590  66.4062500  23.6643181  56.5308876  12.9099312  45.5875282
  56.0241165  12.8642607  46.3982887  57.3607140  12.4824467  45.7993622
  43.2485733  21.8419914   2.4057102  42.3299675  21.8407307   2.1366470
  43.2515411  21.3905582   3.2497666  67.6304779  67.4966736  28.9569530
  68.1961594  67.0739365  29.6031208  67.6698761  68.4274902  29.1766243
  56.6631012  32.2098160  18.4912338  56.0154724  32.5363197  17.8665695
  57.4103088  31.9545765  17.9501610  24.4438267  60.0371666  54.9514160
  25.1292858  60.7020988  55.0165443  24.1350460  59.9226532  55.8501778
  52.0984306  19.1181068  69.9531403  51.7495689  18.2375298  70.0913849
  53.0226860  19.0498810  70.1925735  17.5008297  31.8117676  65.7491074
  16.8531723  32.4965553  65.5822678  17.7802200  31.5290604  64.8783340
  14.4619102  67.9248581  65.3749847  13.5414791  67.9394531  65.1126328
  14.4378366  67.8646393  66.3299789  82.3845901  47.7751923  59.0105019
  81.8792572  48.5863419  58.9566231  81.8335648  47.1207581  58.5811768
  36.1177864  31.7995110   5.8502197  35.5487900  32.4805450   5.4915242
  36.9913712  32.1907501   5.8464222  46.6650352  70.6351395  14.4770355
  47.2919807  70.2540283  13.8622780  45.9470291  70.9454803  13.9253283
  32.6821060  55.7495346  21.6831398  32.3977509  56.1408920  22.5091038
  33.4427071  56.2684593  21.4215469  60.8261414  38.9375992  22.3427143
  61.7500725  39.0501938  22.5661068  60.8347816  38.6264000  21.4375553
  81.3357468  11.1574430  75.0393448  82.1008148  11.6584473  75.3220215
  81.1874542  11.4361343  74.1357040  31.2895756  13.3904715  74.0949631
  31.1242466  12.6603184  73.4984970  30.4217529  13.6444082  74.4090195
  19.1126289  67.8088531  56.2330627  18.9316559  67.1625671  55.5505676
  18.6333752  68.5898972  55.9564552  20.3680592  45.4861603  88.8826218
  20.6528606  46.2057571  89.4459152  19.4466343  45.6729584  88.7028656
  81.3578033  14.6305199  47.8804970  82.1169128  15.0421543  47.4675293
  81.2982864  15.0462608  48.7406387  48.4486809  67.1171341   5.2278900
  47.8992691  66.7311630   5.9100952  48.0660706  66.8058243   4.4075680
  75.7093658  60.4568710  27.7324772  75.9612198  59.6320763  27.3171291
  76.5260773  60.8031273  28.0920868  62.0045242  10.9211912  44.4840240
  61.5980263  10.9144773  43.6174507  62.3505478  11.8085489  44.5793915
  65.2064209  15.0886936  10.1487732  65.2595978  15.5281944   9.3001022
  64.4214630  15.4526281  10.5581970  38.6372261  44.8418388  55.7114067
  38.0424156  44.1193886  55.5101624  38.1559486  45.3804665  56.3394890
  18.8562870  21.2749367  85.0074234  17.9493542  21.4397278  84.7494507
  19.2916794  22.1213455  84.9061356  77.3409042  51.6608810  13.9764023
  77.2542572  51.6711082  14.9296188  77.1308136  50.7610893  13.7264500
   4.2953258  39.8045120  39.3656311   3.9386284  40.6921577  39.3986282
   5.0173230  39.8596382  38.7396011  44.0275383  60.3569717  58.0123024
  43.5693855  59.5283470  58.1527061  43.4162827  60.8845024  57.4981918
  74.0652008  20.0651169  87.1611938  74.0507507  19.1681004  87.4949341
  73.7675705  19.9882202  86.2546921  79.8307724  46.1287384  73.4915466
  79.4707794  45.7421455  74.2897797  80.6431503  45.6465988  73.3371964
   1.3225344  50.3160629  23.0606289   0.8160205  51.1278305  23.0872059
   2.1679537  50.5485802  23.4445992  67.5451508   2.1760194   3.6188636
  66.6966476   1.8500898   3.3187842  67.3899689   3.0991025   3.8190374
  25.9494019  36.2923126  12.7121363  25.0319214  36.5547028  12.6372223
  26.2309647  36.1452904  11.8091745   7.3819432  24.2117844  86.6501160
   6.6974635  23.5582561  86.7937088   7.2702131  24.4791603  85.7378311
  73.0317230  66.3558655  28.0466423  72.4316635  66.2666016  28.7870445
  73.6672974  67.0125656  28.3312778  73.5887375  61.4618301  24.1625881
  74.5272751  61.4953880  23.9775124  73.5225296  60.9590073  24.9743862
  10.1129093  62.8831558  68.5273514   9.9663839  63.3776741  69.3337097
   9.2338943  62.6709938  68.2134247  59.1336136  22.6244907  33.6617355
  58.1854172  22.5918045  33.7885704  59.4887657  22.0890484  34.3712425
  65.7537613  17.3844852  12.5814714  65.4209518  18.2188053  12.9122028
  65.0597076  17.0603848  12.0074663  75.0481949   1.9593699   8.6867027
  75.6586304   2.6776769   8.8529215  74.5880051   1.8390679   9.5173569
  31.4472141  24.7927780  68.6421432  32.1823425  25.0458832  68.0837936
  31.0441837  25.6223831  68.8981781   2.9691064  26.9170532  52.6262169
   2.8001728  26.0420895  52.2767410   3.6338923  26.7810650  53.3013458
  75.6435089  39.2983284  20.5112076  74.7876816  38.9904785  20.8095779
  76.0519028  38.5269127  20.1183147  70.7086487   9.4375792  65.6386108
  71.1077805   8.5676308  65.6277618  70.2004929   9.4780779  64.8284454
  48.3675880  31.2794685  85.1335068  48.9363556  30.8514671  84.4935532
  47.4901772  31.2123547  84.7568359  53.1609955  32.6596451  10.8179207
  53.3467789  31.7328224  10.6672001  53.6638412  32.8803062  11.6019382
  19.0724125  14.9512863  87.4480133  19.0766258  14.7252035  88.3781204
  19.2161636  15.8974752  87.4308624  85.1758499  49.2655487  70.3551254
  86.0307846  49.3083000  70.7834854  85.1829605  48.4294472  69.8891754
  52.8008499  25.5175457  55.7129974  52.5037727  26.4248276  55.6436119
  53.7301712  25.5858917  55.9319191  47.5541153  47.4729729  31.4737015
  47.2461090  46.6400871  31.1164017  47.9072266  47.9419823  30.7176723
  39.3829956  48.9453049   6.8534670  39.9869270  49.5692863   6.4507937
  38.5721779  49.0401077   6.3536534  22.3582230  65.1563797  19.5157070
  22.3787670  64.5591736  18.7679348  21.4501591  65.1312637  19.8174057
  86.4779205  37.2204399  69.5814667  87.2040482  37.8354034  69.6853638
  86.2317123  37.2941360  68.6594086  41.5731354  38.8183327  79.0120316
  42.2272491  38.3417587  79.5231552  42.0698547  39.5065956  78.5695496
  46.0682526   1.0920616  31.6676941  45.2249794   0.6460169  31.5891991
  45.8410072   2.0020177  31.8589287  39.0139961  40.8406830   2.4391906
  39.2518311  39.9146004   2.3940182  38.6289711  40.9469299   3.3090761
   8.8759832  20.7655735  75.3345413   9.1001911  20.6352673  76.2559509
   9.4848928  20.2015133  74.8577881  24.4755859  42.9104347  28.5925484
  24.2566566  42.3103676  29.3054447  23.7083530  42.8927689  28.0204716
   3.5357890  34.4326324  35.3141365   4.2109046  33.7589378  35.3952942
   2.7457235  33.9515495  35.0679893  43.5589561  60.5830765  15.0698156
  42.6897812  60.9236679  14.8582268  43.4324646  60.0911942  15.8811626
   7.9412136  19.0548668  56.6926842   8.3240919  19.8072109  57.1439209
   7.0437965  19.0090351  57.0224953  74.7312393  36.9576950  68.2330322
  74.6213150  37.9080544  68.2641144  73.9528503  36.6121330  68.6699753
  73.4922333  19.8124084  10.2935066  73.8543472  19.8216953   9.4074917
  74.1714859  20.2156677  10.8340931  57.1315994   8.2269306  29.5959606
  57.0359917   7.9986286  28.6713142  58.0764122   8.3082886  29.7261257
  69.6583099  35.6703110   6.2329636  68.9144211  36.0075569   5.7338333
  69.9909439  36.4304886   6.7101569  44.2983322  48.3484650  77.3567429
  43.4654770  48.8142815  77.2819138  44.6055107  48.2605629  76.4544449
  68.5395279  20.6205711  46.8845062  68.0852661  20.1356163  46.1955223
  69.4171371  20.2391090  46.9071274  61.6008301  66.5045471  35.6923447
  60.9339752  66.9381180  36.2248383  62.2536888  66.2036514  36.3243828
  27.6123409  36.7188225  77.3409882  27.3792896  37.6392403  77.2195282
  26.9679432  36.2380295  76.8215408  28.9800816  49.4978371  78.0122223
  29.1669025  49.4131889  78.9471893  29.6559486  50.0918503  77.6857452
  72.3003769  41.9856491   5.4313993  71.4576721  41.5336647   5.4736643
  72.7153549  41.6450691   4.6389146  27.2597256  55.3484612  36.2429771
  27.7741356  56.1556129  36.2319298  26.7441711  55.4040108  37.0475578
  14.1020670  30.6826439  64.0108719  14.8734455  30.8651695  63.4743156
  13.4124231  30.4815350  63.3782768  36.0025558  22.5960026  82.1611404
  36.6992378  22.1000023  82.5910873  36.3388748  22.7682896  81.2816925
  22.0527000  68.5108032  62.5307426  22.6371040  67.8825989  62.9550743
  21.2525196  68.0147095  62.3580322  84.3031082   7.6536207  55.0875320
  84.9727859   7.1739397  54.6000290  84.3236008   7.2694125  55.9640007
  85.9836960  37.4773903  76.9566193  86.2288742  38.3287811  76.5943298
  86.5942917  37.3405037  77.6809616  37.4822655  60.8856773  34.8347054
  37.0598869  61.2601662  35.6077423  38.1400223  60.2865601  35.1877594
  16.1174221  68.9584122  14.0154591  16.4133129  68.0524826  14.1047602
  16.9179840  69.4567642  13.8512182  29.2260418  48.3413696  17.6444473
  28.9642754  47.8135490  16.8900509  28.4806747  48.9210434  17.8014050
  17.7261658   4.0585279  57.7846222  18.1386871   3.2459810  57.4916649
  17.5904388   3.9331498  58.7238197   2.3255258  53.5394821   1.2617449
   1.8198148  53.6167145   2.0707710   2.1387727  54.3479042   0.7844554
   4.7089672   4.0606818   8.3156033   4.9543867   4.4586840   9.1508245
   4.5284109   4.8038740   7.7400188  63.6743965  60.6372414  85.9203110
  63.8224373  60.3424454  85.0217514  62.7266769  60.7577438  85.9797821
  18.2719898  49.2922592  36.6894379  17.9523544  50.1195221  37.0495720
  19.1437836  49.4986877  36.3524017  26.6271152  27.2111912  13.0074453
  26.1303501  27.7789726  12.4183092  27.3993797  26.9582367  12.5016260
  82.5850449  64.3436890  88.6487045  83.1281967  63.6870232  89.0846100
  82.9719849  64.4348450  87.7779541  43.2397881  39.0347633  82.4568558
  42.4453926  38.7417068  82.9032745  42.9362221  39.7015152  81.8408051
   7.0934114  36.8672867  41.2849922   6.1564398  36.9676323  41.1169243
   7.1708140  36.0114098  41.7065582  85.3772659  29.1806908  30.0077095
  85.9890671  29.7671318  30.4527054  85.4630585  28.3480034  30.4719315
  50.3627625  20.4297562  17.3384590  49.5840912  19.9430141  17.6086159
  50.0200272  21.2414513  16.9644089  15.3083763  19.0860405   6.4930234
  14.6021452  19.6910210   6.2661514  15.9561901  19.6309013   6.9398971
  73.5266647  32.8464432  24.2800884  72.7894821  32.2360229  24.2936516
  74.1119843  32.5001793  23.6064968  86.4035873  44.3942337  45.2344551
  86.8088531  43.7653847  45.8315659  86.7160950  44.1366653  44.3671455
  12.0194168  44.0478477  60.3926888  11.5183353  43.2401466  60.2796783
  11.7931309  44.3489532  61.2726669  46.6828918  63.2222710  62.8145065
  47.5300446  63.2141266  62.3689804  46.4512558  62.2979927  62.9055367
  79.8837204  31.6030598  27.8244858  80.4612350  31.9985294  27.1715546
  79.0538864  32.0694504  27.7241135  84.4291763  66.3702850  49.2915306
  84.0735855  66.7273560  48.4777222  84.8486557  67.1176147  49.7178574
  32.4188004  52.0058708  28.1410809  32.0619240  52.8437080  27.8462925
  32.0718346  51.8959351  29.0263844  45.5963707   9.3810587  14.3040276
  45.2619934   9.2272367  15.1876345  44.9389076   8.9911375  13.7278881
  54.9894142  62.1909523  17.2431145  54.4180641  62.4442558  16.5181122
  54.9794655  62.9462395  17.8310566  85.2137985   3.2918532  86.1901627
  84.4811325   2.7125764  85.9807205  85.0945969   4.0467629  85.6138535
  57.1092949  68.0292969  73.7796097  57.1549873  68.9753647  73.6414185
  57.5512466  67.8879166  74.6168213  12.3877363   1.7484345  24.5939064
  12.5175915   0.8133631  24.7520561  11.7831068   2.0260401  25.2820854
  69.5373688  44.4529953  20.2821159  68.8030777  44.3839989  19.6719570
  69.5718765  45.3817101  20.5113106  12.5436878  26.4891491  76.2284393
  12.0194883  27.2747746  76.0727463  11.9225092  25.8531761  76.5832748
  25.8101215   6.5104923   2.9156744  25.1033878   7.0252385   3.3052843
  26.3744450   7.1587844   2.4943812  46.3310013  60.9310913  14.5783215
  46.3770523  60.6045036  13.6797380  45.4542961  60.6888657  14.8765640
  19.3688374  52.4711723  72.6642914  20.0952168  51.8808708  72.4639053
  18.5947037  51.9081993  72.6606369  81.1563339  50.8206635  14.4322271
  80.5851135  51.5884781  14.4122944  80.8615570  50.2836761  13.6967134
  81.1007767  51.3125572  54.8858643  81.9235458  51.1261826  54.4336014
  81.3087311  52.0410576  55.4709015  37.4612427   2.6713531  77.3044815
  37.5515480   1.7194408  77.2604446  38.3313599   2.9832363  77.5531845
  57.5271797  13.5920134  75.7580948  58.2360191  13.7788858  75.1425781
  57.8028145  12.7916832  76.2050018  49.1336403  62.6265106  37.3061752
  48.7791252  62.8802834  36.4540291  48.3787575  62.2900429  37.7890625
  71.4284515  45.8925095  37.6835136  71.4498978  46.4363174  36.8960838
  72.2453918  45.3945999  37.6530533  64.9615631  62.2654610  25.7624111
  64.7026901  62.3631935  24.8460789  64.5870056  61.4258537  26.0288715
  74.6345215  48.4436226  23.0615120  74.6825409  48.7088737  23.9799709
  75.5473404  48.4002228  22.7767105   2.4858086   4.6225414  72.2637177
   2.2071352   5.5264449  72.4104538   2.1922295   4.4226956  71.3748398
  26.3990593  44.7707558  39.4732666  26.4457245  44.3529129  40.3331833
  27.2029037  45.2870331  39.4139023  50.8965187  47.3690071  45.8279800
  51.8526955  47.3249702  45.8234596  50.6743050  47.8330498  45.0208168
  83.9042053  37.7981339  31.8223839  83.7452316  37.2842064  31.0306530
  84.1309891  37.1486855  32.4879799  75.4068375  62.7518806  20.1447887
  75.1739349  63.0099258  19.2529354  74.6667099  62.2226143  20.4419880
  50.8681259  18.1106434  15.7393961  50.7677345  18.9345703  16.2161541
  51.5344810  18.2964020  15.0778112  23.5344906  60.9116974  78.8349991
  23.1100388  60.0706558  78.6655197  23.3429546  61.4374504  78.0583801
   8.2512722  21.8847370  13.4412966   8.6661139  21.5541935  14.2380905
   7.3136311  21.8625145  13.6325216  68.7474060  10.7819767  84.1546936
  68.8731918  11.4816895  84.7956390  68.2081680  11.1782150  83.4702606
  22.0000439  44.9141273  57.3284340  22.0320053  45.8627281  57.2044907
  22.8675041  44.6869736  57.6633148  68.9688950   4.8830276  35.1561813
  69.5546875   4.6792040  34.4271164  68.5167465   5.6816244  34.8840828
  65.6858292  51.6093559  55.2699051  65.3068848  52.3417397  54.7838554
  66.5128708  51.9502831  55.6105042   7.3500223  39.8835258  23.6115818
   7.8449526  40.6450043  23.3092155   6.8653274  39.5910072  22.8397427
  46.7861786  62.4860992  75.6636581  46.1840401  61.9347305  75.1640015
  47.2464714  63.0003052  75.0003662   2.6709504  32.0856819  71.1041794
   1.7635144  32.1629105  71.3988495   2.9542859  32.9888611  70.9619751
  16.8584270  45.1470718   7.4007201  17.5400677  45.7422523   7.0886970
  16.5262871  45.5601234   8.1977797  78.6648254   0.6456005  40.0279922
  79.3037796   1.0257474  39.4251137  78.7335434   1.1808296  40.8185883
  60.1624641  70.5317078  31.9440289  60.4645729  69.6969528  31.5860577
  59.3397751  70.7048645  31.4863911  73.0729904  45.3967171   3.2655718
  73.7428818  44.7642059   3.0059276  73.5034256  45.9461555   3.9206100
  49.1748009   3.4685786  44.9106789  50.0827255   3.4707732  45.2138290
  49.2410698   3.4807467  43.9558563   9.3275757  15.0461922  87.3538055
   9.8812790  14.2732315  87.4641571   8.4791889  14.6962242  87.0817871
  22.9284325  50.5065117  12.8832884  22.3694611  51.2060509  13.2215633
  23.7226620  50.9543190  12.5919075  14.2733574  62.4024734  83.6547546
  14.3406086  63.3572960  83.6596222  13.7808952  62.1930046  84.4483795
  26.8710766  15.3069124  72.5888367  26.8977394  15.5536165  71.6643600
  27.6117725  15.7689047  72.9814758  51.6297264  67.9780731  48.4309502
  51.9670525  67.4756088  47.6893463  52.2454453  68.7045059  48.5279808
  36.2039070  41.3396988  71.5815430  35.8761292  41.0379715  72.4287491
  36.0932159  42.2901459  71.6066055  43.5007248  13.0908756  64.2290726
  43.7780075  12.7511730  65.0799255  44.2977982  13.4573250  63.8461685
   6.2046752  42.2990799  41.1090012   5.2562761  42.1736298  41.1411438
   6.5449152  41.4688988  40.7754250  65.7021408  15.5941925  53.0064163
  66.4317474  15.0503616  52.7095146  65.2356873  15.8280687  52.2039452
  76.5991592  48.8049049  48.2717743  76.2128448  48.5394592  49.1063614
  75.8658524  48.8014870  47.6565628  31.8943081  45.9715729  30.9289112
  32.7869835  45.6307182  30.8725224  32.0033035  46.9211655  30.9801044
  33.2558327  43.2090912  28.6953678  33.9155045  42.6796799  29.1434612
  32.6068993  43.4054489  29.3710632  28.6550236  34.2997208  74.8099365
  27.9614735  34.8618927  74.4647064  29.2220268  34.8935623  75.3019562
  24.9217701  64.3978653  31.0507641  25.6089287  64.8000107  31.5821095
  24.5798473  63.6901627  31.5970936  78.0565262  22.9446678  43.3434296
  78.6407318  23.6662827  43.5762634  77.2261047  23.3689327  43.1274796
  12.1211004  35.9560204  58.8615990  12.6219530  36.7665176  58.7695694
  12.4229412  35.5805473  59.6887283  85.7421646  59.2672157  51.2526436
  85.2940369  58.6131058  51.7888870  86.0218506  58.7871170  50.4732132
  47.9091759  40.9831696  53.9332199  47.2594261  41.6604233  54.1213150
  48.6504593  41.1986465  54.4991722  33.5309334  65.5743866  48.5635834
  33.2247696  64.6744537  48.6759300  34.3454247  65.6146164  49.0648041
  70.6471786  58.9415321  16.2333088  71.0465164  58.1034966  15.9999542
  71.0812607  59.1951370  17.0478573  48.2239265  61.4029884  71.3873672
  48.3113022  61.0601921  70.4979324  48.2004166  60.6239624  71.9430618
  85.2217255  42.3429337  60.8379059  85.0721741  42.9830208  61.5337143
  85.4114532  41.5265350  61.3002129  84.1889954  46.6810837  83.6570206
  84.2821960  45.8263321  83.2363663  83.4108200  46.5935478  84.2074814
  31.9961128   4.0852528   1.9045544  31.8202686   4.9761977   2.2070889
  32.7049103   3.7762344   2.4687750  30.8434696   0.3310108  66.4297028
  30.0544167  -0.1757379  66.2377853  30.8156624   0.4680960  67.3766327
  56.7550011  33.0663185  88.1195602  56.7153664  34.0000076  88.3266449
  56.0916862  32.6676788  88.6828842  24.4295712  49.0817184   3.9956834
  24.0363522  48.5649490   4.6989307  25.2492352  48.6295967   3.7957582
  51.8562889  39.1865768  82.7012329  51.3114471  38.4272003  82.4945374
  52.0355148  39.5909462  81.8523483  76.8728485  65.5873489  51.2328911
  76.9787216  65.5955353  52.1841850  77.7394257  65.3577118  50.8974190
  55.3010101  20.7849026  86.9135437  55.0491829  20.2275677  87.6498871
  56.2284622  20.9708481  87.0601273  60.2179985   2.0838013  22.4764271
  59.7896194   1.2405934  22.3290367  60.3354149   2.4493113  21.5995884
  59.8158150  47.3005447  79.4132385  59.2258530  46.8557510  78.8046875
  59.9677773  46.6616440  80.1096191  68.9782181  14.6351757  80.8499908
  68.8649368  15.4613295  81.3199615  68.7735825  13.9610100  81.4979553
  14.3275261  14.1343546  82.3124847  15.2532463  14.3762589  82.3399887
  13.9145651  14.8257618  81.7951355  26.7560616  50.1158600  11.5717821
  27.3783627  49.5300484  11.1407404  26.8393974  49.9105606  12.5029850
  74.1677475  14.9556494  78.4091721  74.4408112  15.8645697  78.2845535
  74.7794571  14.6086655  79.0585098  84.6116409  60.7207527  20.4719467
  84.0739365  61.5118446  20.5078564  83.9812698  60.0010910  20.5028553
  16.7270184  40.6573372  47.9306602  15.8295183  40.3579826  48.0759583
  16.6439152  41.3587914  47.2846794   2.6033933  37.8938141  67.0757980
   2.6253107  38.4355507  67.8646393   3.2524440  38.2904663  66.4947357
  49.9313889  50.2826958  54.0435333  49.3385925  50.8750229  53.5809593
  50.0678673  49.5567818  53.4347191  12.6327877  41.3104439  50.0916824
  12.7956858  41.9617119  50.7739906  11.8553686  40.8391075  50.3911705
  72.3096237  30.2209625  85.6602478  72.7624588  30.0982819  86.4945831
  72.0376129  29.3398590  85.4035416  38.7301521   1.0728064  24.8292255
  38.1334381   1.2326710  24.0980568  38.3221130   0.3592991  25.3197803
  64.3189011  70.2147293   7.4852366  64.6294327  70.0065002   6.6040773
  64.6253738  71.1078262   7.6423712  80.4667358  61.7875977  35.5620728
  79.6084824  61.7145233  35.9795570  81.0751190  61.9263954  36.2879105
  56.1924210  37.5974846   3.1994989  56.5245857  36.9460335   2.5818329
  55.5377693  37.1266365   3.7152171  54.8699760  23.1591682  82.0556107
  55.0350342  22.6743679  82.8642883  54.0025482  23.5442886  82.1800385
  80.6062927  60.7913475  22.5428467  81.3318176  60.9195137  23.1539230
  79.8202667  60.9117928  23.0756550  43.1156960  64.1112366  15.7897654
  43.7068863  64.4542465  16.4598942  43.4521942  63.2356873  15.5989428
  55.8027267  29.9605885  47.0870094  55.1799774  29.4372158  46.5825272
  55.9316635  30.7508202  46.5624695  49.2680588  60.5113297  85.9302216
  49.8013115  61.2715492  86.1624680  49.4027672  60.4028816  84.9887695
  52.8271523   3.4793649  88.8731842  53.3801880   4.1016273  88.4007721
  52.9630051   3.6913023  89.7966843  31.7568398  48.8614273  13.2616377
  30.9297695  49.1702652  13.6315088  32.1576538  49.6444664  12.8842382
  65.4793549  43.7759476  31.6686916  65.7775574  44.0092392  32.5478287
  64.5254669  43.8411598  31.7141647  57.2423134  18.2096062  38.6030006
  57.4084892  17.2672558  38.6273727  56.8484116  18.4054203  39.4531364
  57.4003830  26.8032837  46.8638344  58.1399345  27.2578487  46.4605103
  57.4623756  25.9064312  46.5351372  19.1384411  32.7641144  70.8871536
  19.5362339  32.4352379  71.6932755  18.4732189  32.1126099  70.6652222
  26.4946365   5.0298047  86.6137314  27.4420815   5.1488242  86.6801758
  26.2689972   5.3807077  85.7522278  35.7199020   2.5205674  14.0319271
  34.8584824   2.8779020  13.8162966  35.6531563   2.2748866  14.9546499
  36.7393608  64.5508728   2.4154654  36.7798576  64.4629440   3.3677576
  36.4869194  63.6812668   2.1051602  54.3585815  17.8921814  83.2830429
  54.4904480  17.7234554  84.2159805  53.9723434  17.0839329  82.9457169
  22.7233944  49.3416519   0.2193017  22.7266293  50.2951164   0.3037238
  22.1224976  49.0428085   0.9018323  80.8047638  35.1437073   3.5962398
  81.6768417  34.7888718   3.7688558  80.2600555  34.3731003   3.4359481
  69.0976944  46.4218445  57.8005257  68.2232971  46.5622025  57.4372597
  68.9731216  46.4660187  58.7485542   2.4397199  24.8459282  30.0334702
   2.9443398  25.1951714  30.7680588   2.0188420  24.0608215  30.3837547
  12.3108673  61.9612503  24.3904591  12.1051092  62.4979401  25.1558743
  11.8969002  61.1173668  24.5713634  26.5932465  60.6823502  34.7489662
  26.7343102  61.2277222  35.5228500  25.6676273  60.4421120  34.7907410
  49.5302963  37.4978104  20.1322365  49.0077133  36.7521439  20.4273891
  50.2939796  37.4984818  20.7093143  46.3375359  12.2489643  60.0952721
  47.1009560  12.5740471  59.6180496  46.6541939  12.1104679  60.9878960
  34.9699478  57.2824173  12.2923803  35.6389694  57.0599632  11.6449585
  34.5757256  58.0895882  11.9617748   1.2371831  59.9449234  14.9719973
   1.7319618  59.3810310  14.3774786   1.5829226  59.7391472  15.8405323
  60.8039169  16.0228081  21.6104813  61.3523178  16.5984020  21.0773964
  61.3781853  15.2933989  21.8437386  73.0128174   4.1298251  19.0438461
  73.6167984   3.4000776  19.1813374  73.5792923   4.8754601  18.8454437
  49.5880928  30.9137707  68.1530457  49.2216072  31.7772160  68.3437958
  50.2837257  30.8004265  68.8007202   6.5241742   9.2265129  13.2943306
   7.4653459   9.0520782  13.2942038   6.4286489  10.0257835  12.7763796
  32.3023071  51.3834839   3.1547403  32.1219330  52.0675468   2.5099487
  31.4967728  50.8675117   3.1882362  21.5303268  63.2714424  26.6676903
  21.9291039  63.8090248  27.3519554  20.6341019  63.1247673  26.9701786
  30.7942867  62.2292099  33.0394440  31.5853081  62.7295532  33.2398758
  30.9924660  61.7887421  32.2130394  25.5597878  55.9497719  85.6116791
  25.7814484  55.9660988  84.6806412  26.0388145  55.1972504  85.9587708
  84.8104095  45.8511467  20.3766289  85.3339005  46.1131859  21.1339436
  84.0899582  46.4809570  20.3539944  80.8300018  30.2278786   1.6727620
  80.1790161  30.0454674   2.3503909  80.3555222  30.1172199   0.8488314
  42.8405190  62.2159920  79.1413651  41.9382324  61.9567032  78.9545975
  43.2046623  62.4483109  78.2871704  72.8274994  68.4233246  44.7615776
  72.0227432  68.8480988  45.0584908  73.0062714  68.8186722  43.9083633
   4.1872954   7.3389182  67.6728745   3.7370176   7.7847543  68.3903046
   3.9511783   6.4172587  67.7778702  16.9498711  36.7852516  74.6971741
  17.1615448  35.9682579  74.2455597  16.2911930  37.2022324  74.1417465
  45.8913307   2.4999263  25.1093369  46.0154190   3.3392394  25.5524940
  46.1214333   2.6745875  24.1967716  14.7745390   2.2940309   4.1850066
  15.5528822   1.9885824   4.6509624  14.3213120   2.8527951   4.8163538
  19.5518322   6.5130939   5.3101859  18.9500828   5.8377662   5.6233339
  19.7235813   7.0562329   6.0794282  60.3315315   0.0132326  49.9047050
  60.6729126   0.8701353  49.6489525  59.7418518  -0.2321760  49.1917648
  33.4696159  22.7039948  78.2588501  32.9619408  22.7192764  79.0701828
  33.3863983  21.8049011  77.9411392  84.0119705  55.4005661  22.6262417
  83.3182373  55.1869545  23.2502117  84.2302170  56.3134460  22.8139858
  72.7919235  48.5858879  78.8046875  72.9096909  48.1214409  79.6333313
  72.6958389  47.8917618  78.1526260  66.1244507  42.8157539  45.2158623
  65.1976013  42.9324226  45.4245987  66.5221176  42.5351868  46.0401077
  51.5398865  36.6257782  67.1048813  52.2525673  36.8452759  67.7049942
  51.3879128  35.6911888  67.2451706  41.7360649  11.3417902  14.4679174
  41.9059143  10.4194517  14.6594257  41.2478218  11.3295155  13.6446905
  27.4990959  18.2562160  78.7181015  27.7840157  17.9538937  79.5804520
  26.6928959  18.7430134  78.8892746  62.8662682  33.7070007  71.4355469
  63.2717094  34.5000610  71.0849686  62.2325363  33.4464417  70.7671738
  34.9089050   1.8357855  36.6064911  35.2737503   2.2307746  37.3983879
  34.1397820   2.3689358  36.4054070  83.3739853  10.8862658  79.6471558
  83.3132324  11.7545691  79.2489166  83.4526901  11.0581017  80.5855103
  67.0724869  47.6435699  25.4407635  67.9055786  47.8037834  25.8840694
  67.3102570  47.1526985  24.6541653  18.9656353   5.9052305  65.7053604
  19.6903629   5.5969253  66.2493668  18.1958981   5.4563351  66.0549698
  29.7702065  -0.1769651  18.4256535  29.7165089   0.5214697  19.0779858
  30.3239861   0.1839689  17.7333469  41.4371529  34.4946442  17.4649925
  40.7029076  35.0743828  17.6675396  41.2757072  33.7110977  17.9905605
  20.0663948  59.5354347  23.6122341  20.6237907  60.2924652  23.7923622
  19.7499981  59.2607727  24.4728642   6.6633568  32.5279961   3.1418598
   6.9714694  33.3635025   2.7908266   5.9480357  32.2726440   2.5593288
  66.8429260  67.1781006  32.9985619  67.1497345  66.8335953  33.8372574
  66.3846207  66.4431992  32.5909882   6.8657155  24.4779034   3.3845150
   7.7186947  24.1140842   3.1472514   7.0561090  25.3744698   3.6604722
  46.9129448  14.6331558  23.2640572  47.1762772  15.2906294  23.9079628
  46.9145966  13.8082542  23.7496147  57.4716721  36.2680206  59.2166862
  56.6197090  36.0513039  58.8379707  58.0991669  36.0776443  58.5193787
  49.7723656   4.4713249  35.1343346  50.2657051   4.3416104  35.9442863
  49.9732018   5.3699527  34.8728676  48.9357529  30.7847481  15.6027260
  48.8355827  30.1856728  14.8629227  49.5798111  31.4272766  15.3051100
  45.4275780  60.9695244  79.7736969  45.3731995  61.7953262  80.2546616
  44.5367584  60.8168335  79.4584808  63.5341225  38.1580734  47.6687241
  62.9958763  37.4181061  47.9497490  63.8826332  38.5232544  48.4819984
  62.9770203  28.3154755  35.2086678  63.0103607  28.5344009  34.2774391
  63.8477669  28.5377102  35.5382805  28.7664223  51.9032669  86.3964462
  28.9574528  51.4574471  87.2216644  29.4229946  51.5683746  85.7857208
  55.6837082  48.2230339  36.4797096  54.9850273  47.8995132  37.0484009
  55.3100471  48.9966011  36.0575714  72.6333008  15.3198605  86.5720444
  73.1783371  14.6948080  86.0940475  71.7458878  15.1575317  86.2520676
  72.4806366  25.3847809  34.7065697  73.1353607  25.1278915  34.0572777
  72.7494583  26.2604866  34.9842606  63.8487129  71.5517502  54.7881546
  63.8325615  71.4196243  53.8402557  62.9351044  71.4595413  55.0584335
  74.0181961  62.3159332  55.4101601  73.4464569  62.8027916  56.0037270
  74.8334808  62.8173256  55.3979568  26.3455162  53.2194595  79.0572205
  26.5326614  52.6771851  78.2909622  26.7927189  52.7770844  79.7787018
  65.0849686  44.2035675  21.0139122  64.9364624  43.3241005  20.6664753
  65.2850876  44.0647545  21.9396095  11.4916430   8.0639458  13.0050116
  10.9063358   8.6768961  13.4499149  11.8018446   8.5436201  12.2369499
  60.9991608  34.1682892   2.4650271  60.4631004  34.0824318   1.6766759
  60.4940491  33.7262459   3.1474445  85.2211609  21.4573593  71.7349091
  85.3995514  21.6534023  70.8151398  84.3425140  21.8049450  71.8878403
  53.4051056  65.2813644  50.7007980  52.8149757  64.6563568  50.2796707
  52.8963928  66.0902023  50.7576370  82.5527039  35.3307724  21.4881039
  82.6702576  36.2627678  21.6719475  82.5900040  34.9105873  22.3473396
  27.6409378   7.7625384   1.0031356  26.9008179   7.5142083   0.4492534
  28.3695221   7.2315068   0.6815723  30.9771214   5.4778509  69.2892380
  31.2729549   5.5208831  70.1985626  31.7681522   5.6311412  68.7725143
  81.4365158  68.2189560  55.3316498  80.8684540  67.5516891  54.9465637
  81.6230011  68.8200073  54.6104050  31.4425812  55.0997047  36.5536079
  30.9806767  55.5972595  35.8788414  32.1964607  55.6446953  36.7791748
  66.2337189  19.0516605  38.1757355  65.7567673  18.9651699  37.3503456
  65.7751617  19.7482967  38.6454773  78.4999313  70.3197174  72.2070465
  79.3421860  70.1374893  71.7903671  78.0807114  69.4627075  72.2846527
  81.9506836  57.0523529  60.6258011  82.1045914  56.5455055  61.4230766
  82.6663055  56.8025055  60.0412598  35.3938179  46.5542679  13.0415430
  34.6427231  45.9615746  13.0132103  35.1810417  47.1775169  13.7361755
  50.3340569  42.5630989  62.3259888  49.6698151  43.0776405  61.8674469
  51.0922928  43.1447868  62.3803215  86.0265656  42.3099518  37.2299767
  86.0438385  41.8700981  36.3800011  85.5525970  41.7066040  37.8022995
  51.0196800   7.5508838   0.3837060  50.6963959   6.7112150   0.0570948
  50.3451347   8.1815929   0.1318630  13.6693659  64.2552567  33.7533607
  13.8125629  64.0132217  32.8384056  12.7246981  64.3949280  33.8191376
  42.5391960  17.0074902  10.7464008  42.4688873  16.0720825  10.9369354
  43.4726830  17.1506367  10.5903778   5.7162795  10.7489033   8.7067490
   5.3160601   9.9497595   9.0494223   5.5842938  10.6959925   7.7601695
  24.4402275  35.5569229  30.5723209  24.3564777  36.2533073  31.2236805
  23.9323063  35.8676376  29.8228512  42.1119995  18.1891537  79.8037109
  42.7319221  17.4633789  79.7317505  41.3567772  17.9113541  79.2853546
   4.8868327  42.0229836  63.5535011   4.8859992  41.1508064  63.9478836
   4.5866895  42.6026878  64.2535629  69.1538162  65.6432800  81.2629089
  68.4144211  65.1960831  81.6746597  69.5667114  64.9725037  80.7190399
  55.0014534  14.2254438  16.4796009  55.5800629  13.6406384  16.9689350
  54.1253052  13.8650484  16.6163712  79.8722000  41.1430664  51.8249969
  79.5438004  41.5361710  52.6336098  79.0863190  40.9685898  51.3071289
  33.1330452  64.0867615  32.4533195  32.7364502  64.9170609  32.1895866
  33.8046036  64.3334122  33.0892487  58.1477203  41.2947388  31.5917892
  58.0191307  41.8610535  32.3526993  57.2927322  41.2733231  31.1619434
  42.1616821  27.1885815  10.3611937  42.7832184  27.1430874  11.0877323
  42.3633423  28.0163898   9.9249611   3.7556717  34.7428474  70.8650742
   4.6562924  34.6311035  71.1694260   3.8440073  35.1029129  69.9825897
  51.0491600  51.9674072   0.9233612  51.8575287  51.5009003   1.1358223
  50.3638382  51.4790573   1.3795183   2.6011708   8.8760214  75.9283295
   1.8630060   8.3037996  76.1378632   2.5895863   9.5429935  76.6147995
  29.3668995  51.8705597  17.8249702  29.5075760  52.8172913  17.8129292
  29.7010574  51.5895805  18.6768055   6.6545925  28.0432186  30.6326561
   7.3888669  27.6892376  31.1344223   5.9693580  28.1928177  31.2840424
   0.6989787  60.8585892  35.2999115  -0.1880894  60.7636299  34.9530334
   0.6207141  61.5306396  35.9770050  43.9703255  71.1420288  17.2997723
  43.3968086  71.4552231  16.6003342  44.3156662  71.9393158  17.7014008
  80.3920288  38.4717941  22.6465702  81.3044662  38.4555092  22.3577576
  80.3761444  37.9105911  23.4218330  23.6019650  20.0921459   4.0489631
  23.4403572  19.2052956   3.7270782  24.4433956  20.3370705   3.6639454
  32.0441055  45.9119301  63.4417992  31.6236153  45.0644417  63.2962494
  31.3994312  46.4172478  63.9370575  52.1587296  12.4366474  41.7686272
  51.4295120  12.4287462  42.3886375  52.9392433  12.3488312  42.3157272
  46.4266663   2.3324232  62.5713387  45.7725487   2.5048120  61.8941040
  46.0525894   2.7101827  63.3673286  83.0373154   2.3097978  11.0611544
  82.9707260   1.3558764  11.1039572  83.8519897   2.5138731  11.5203838
  43.4604683  10.4205017  63.2524948  43.6726875  11.3103714  63.5341454
  44.1477699  10.1976786  62.6246452  11.8329620  58.0288124  26.7766438
  11.1618099  58.2507515  27.4220352  11.6647062  58.6202316  26.0430622
  45.9400444  43.3887138   1.4728860  46.2009811  44.0236359   0.8057891
  45.0078125  43.5561371   1.6112570  56.9400253  62.8473091  57.3655014
  57.4556465  62.1388779  56.9801559  57.4937363  63.6228943  57.2755013
  23.5493031  54.8174438  24.5306053  24.3649139  54.7990875  24.0299320
  23.5011501  55.7083054  24.8774090  75.2516327  64.7149506   8.9174089
  74.7505493  64.0901871   9.4416437  76.1272888  64.7038498   9.3038483
  53.7757454   0.3933196   6.3372293  54.2612953   0.5296085   7.1507998
  52.9343452   0.0334383   6.6178808  80.5561752   9.8144293  34.4712944
  80.5648193   9.3567190  35.3119240  79.7941742   9.4597321  34.0132790
  47.6261406  53.6145248   3.0088995  46.9300232  52.9598312   2.9538412
  48.3327866  53.1736755   3.4806390  53.3649635  22.2232361  49.3070221
  53.7900848  23.0225239  49.6179008  52.4898758  22.5053692  49.0408440
  50.0340309  50.5137291  66.0695114  50.0830841  51.3380890  66.5535049
  49.1019554  50.4003105  65.8834763  23.6621819  44.0414886   7.0112162
  23.6147785  43.4278107   6.2781520  24.5785542  44.0153847   7.2865558
   4.2689776  15.3283291  67.4640350   4.0664926  16.2605782  67.5424271
   5.1469045  15.3051052  67.0833282  79.2696762   8.6824703  23.9499149
  78.8687820   8.7873735  23.0870647  78.5299072   8.6639328  24.5570698
  36.5760460  45.6604614  89.0170364  37.4451027  46.0539932  89.0952072
  36.6626968  45.0282478  88.3035736  74.5597229  26.4641857  27.9723854
  74.0075073  25.8928051  28.5060654  75.3324280  25.9346886  27.7754402
  51.2317123  69.1239624  39.9838295  51.8832626  69.6419373  39.5111618
  51.1216240  69.5808029  40.8177414  33.3507996  29.6452198  23.9646740
  33.7319489  29.3087597  23.1536560  32.7896309  28.9358540  24.2779160
  49.2541428   8.4018364  69.0163040  49.2551422   9.2173815  68.5151825
  49.5510178   7.7379422  68.3939362  11.4094658  44.7475777  40.9408493
  10.5662117  45.1000977  40.6564484  12.0301256  45.0453033  40.2757378
   8.6145172  54.2056961  41.5539017   9.3278437  54.8413696  41.6115303
   8.7091293  53.6676140  42.3398705   7.7602215   3.9785430  26.3277264
   7.5086432   4.5008521  25.5660629   7.2248402   3.1876953  26.2632427
  84.5286255  30.3036709   3.6115451  83.8182983  30.4152336   2.9797041
  84.8894272  31.1830978   3.7240441  49.3631744  70.9102783  73.5189972
  48.6562119  70.5954056  72.9557114  48.9176636  71.3923874  74.2156525
  15.7520447  26.9136562  35.0033989  14.9288063  27.1396008  35.4363632
  16.2499142  26.4383583  35.6685715  76.1204529  18.1407795   6.0549951
  76.7582703  18.6963558   6.5030570  75.3337784  18.6823940   5.9915771
  82.8662262  20.7960243  10.1109781  82.2686081  21.4051609   9.6773481
  83.6637421  20.8258648   9.5824795  67.9375992  61.4540863  43.6403160
  67.0416641  61.1225662  43.7005501  68.2608032  61.1201096  42.8035164
  55.2331161  63.7476883  67.1799698  55.4953575  63.1070976  66.5188293
  55.4393997  63.3280296  68.0151749  78.2603302  70.5297852  48.3681831
  77.7875595  69.7623672  48.6903458  78.8509674  70.7650604  49.0837440
  34.2985687  53.4302292   4.8501377  34.3854942  52.8503265   4.0935745
  33.8181419  52.9116249   5.4954810  42.8058395  49.9451485  79.1430969
  42.9843407  50.1372185  80.0636826  42.6579971  50.8024597  78.7438583
  37.8189278  45.7468758  39.0321579  38.3320312  44.9418678  39.1023026
  36.9369011  45.4931602  39.3039818   2.4975929   7.6464028  62.4433403
   2.1877582   8.5492373  62.3717499   3.4270427   7.7283764  62.6569633
  47.8865700  40.4047699  28.3717384  48.8191032  40.6090698  28.4415588
  47.8619194  39.4835243  28.1130295  14.3194695   0.8678483  77.6475296
  14.5308037   0.4367079  76.8194733  13.4627314   0.5158352  77.8890228
  49.6203651  15.2914963  31.9747753  49.5738106  15.0333672  32.8953362
  49.5588112  14.4675093  31.4915695  65.6320419  54.8369331  88.7232742
  64.6796188  54.7415428  88.7280197  65.9574966  53.9775238  88.4554520
  34.6335754  37.7835274  32.1615219  34.8427238  38.6234322  31.7528038
  34.2675934  37.2561722  31.4514637   8.9895182  57.2478752  54.6827126
   9.7073965  56.7521019  54.2888985   8.6588602  56.6791840  55.3780441
  13.6580114  10.1977625  78.2763901  13.2931604  10.7202225  77.5621414
  14.6054268  10.2459583  78.1486664  80.8108902  19.3407745  19.0699577
  80.3439484  19.7498207  18.3413429  81.7366257  19.4465370  18.8507195
  44.9977760  49.8655167   0.5289688  45.1122208  48.9983521   0.9177589
  45.6582985  49.9070168  -0.1625686  69.1498947  39.2705002  72.7446594
  69.8167191  39.9449196  72.8740387  69.0737762  39.1882057  71.7940445
  79.9053040  54.6425247  41.9667091  80.3840179  54.0402946  41.3971634
  79.7776794  55.4266815  41.4328117  10.9574289  55.8511314  41.4116287
  11.3999872  55.5350914  40.6239166  11.5159311  55.5610352  42.1328468
  73.7739258  24.6910400  16.6112499  72.9325256  24.4129677  16.2493744
  73.7483826  24.4046555  17.5242462  59.2521820  71.0812607  52.5790558
  59.6416702  71.2997894  51.7324295  58.7971535  70.2530212  52.4267273
  72.1808929  61.5108032  42.1338120  72.0763168  61.1409035  41.2571869
  71.7753067  62.3760681  42.0786133  66.1986084  44.1925621  57.6106949
  65.3284836  44.4359627  57.2946663  66.6845322  43.9603348  56.8193817
  49.3093643  46.2333603   6.9710436  48.4246674  46.2926140   6.6104484
  49.8512726  45.9572220   6.2319131  61.7709694  17.8963909  88.8783951
  62.4326820  17.7259579  88.2080841  62.1967430  17.6570206  89.7015915
  82.2841415  33.6119080  86.5616760  81.7945633  34.3782120  86.8605423
  82.5355606  33.8239479  85.6627502  68.3830185  62.7448997  57.7753487
  67.8100891  63.4527435  57.4804802  67.9220581  61.9439697  57.5258331
  43.7523232  56.8194809  74.5744705  44.6418991  56.5311356  74.7787857
  43.6159134  56.5500984  73.6661377   3.8933427  65.0918808  78.3542404
   3.5386207  64.4139938  78.9294586   4.8415294  64.9666290  78.3927994
  14.0090914  48.4759254  61.8033943  14.1690550  48.0902939  60.9420395
  14.2839613  47.8002014  62.4231300  61.1452942  29.1043015  77.2856598
  61.8328018  28.6973572  76.7584457  60.7635460  29.7675915  76.7107315
  43.2089844   1.5781430  25.1403999  44.0869446   1.7911464  25.4567013
  43.1069031   2.1022656  24.3459778  14.0021152  32.6424141   3.3408604
  13.7435970  33.0117302   4.1852574  14.7706337  33.1510391   3.0821824
  60.5041008  54.9139252  14.2802696  60.5576363  55.0285225  13.3314638
  61.3114433  54.4548798  14.5120115  59.8685875  39.2432518   4.1753793
  59.6606522  39.7388153   3.3832843  60.1996040  38.4048195   3.8533680
  85.0939636  34.8541107  32.0498772  84.5366135  35.0187950  31.2893047
  84.5231018  34.4032364  32.6720161   7.9597387  53.9447517  32.9800529
   8.2630167  53.8525887  32.0768585   7.2567239  54.5925674  32.9317245
  61.8065834  61.7795105  69.2923813  61.2753372  62.1955185  68.6134491
  61.1703606  61.4607048  69.9325409  19.3300648  25.5889759   9.2984867
  19.5741062  25.7798271   8.3928099  18.5661545  25.0168686   9.2252245
  80.3129272  71.1405411  27.9488029  81.0057068  71.7421494  27.6761169
  80.0361557  70.7112427  27.1392765  11.1620522  35.2550201  51.4867821
  10.8195562  35.1935387  52.3784904  11.5253143  34.3873787  51.3093796
  59.3216858  26.8564281  33.3309326  59.7468872  26.1219349  32.8882675
  59.6839905  26.8443909  34.2168312  48.8538971  16.0762730  81.2094727
  49.5803795  16.2908211  80.6243057  48.8811455  15.1224766  81.2853851
  27.9863605  50.2230072  63.1477699  28.1178875  49.9481659  62.2403564
  28.5594196  49.6498985  63.6570702   4.0375566  58.1616554  51.8330841
   3.2616322  58.7128639  51.9347801   3.7328029  57.4107094  51.3237381
  62.9327774  38.6740799  80.4825058  62.4445381  39.1413651  79.8046417
  63.6142616  39.2890663  80.7538071  75.7679520  66.4452896  44.4643936
  75.3714600  66.2470016  43.6160355  75.6558609  67.3904495  44.5661049
  53.5239067   9.6820221  64.9014053  53.7732582   9.3220854  64.0502319
  53.3367310  10.6042013  64.7259598  11.5576696   8.3606758  77.2573013
  12.0265169   8.2794523  76.4267502  12.2037792   8.1207323  77.9215317
  80.8540192   3.0225492  63.0905495  80.0866241   2.6894653  63.5557327
  81.1424866   3.7725728  63.6106262  51.7311630  12.1690445  65.9876480
  50.7900352  12.3319960  66.0505524  51.8798599  11.9784517  65.0614777
  57.0141869  63.1206169   2.1453576  57.8240242  62.6336098   1.9929740
  57.2893295  64.0365753   2.1847241  63.5563278  65.0082703   3.5332224
  63.4566879  65.7242279   4.1606860  63.9538498  65.4171448   2.7644353
  43.0786285  58.8994713  12.1249361  43.8280907  59.3119698  12.5543375
  42.4102097  58.8469849  12.8080845  54.4314766  24.2925320  39.4500732
  54.8082466  24.9188499  40.0681381  53.6087608  24.6953812  39.1724358
  69.5750122  12.3532476  39.8765526  70.4704590  12.5377560  40.1600380
  69.2340240  11.7504225  40.5372772  18.9694138  37.3947182  79.7151794
  18.9387093  37.6269836  78.7870941  19.4787025  36.5847168  79.7426453
  64.6480865  28.3902740  14.2193623  65.0404968  28.1564064  15.0605249
  64.4301834  27.5504971  13.8149834   5.3777995  19.0921745  57.8121338
   5.1537700  20.0180893  57.9055367   5.1085162  18.6958237  58.6407585
  57.6435127  40.0558205  10.8483810  57.6823006  40.2010651   9.9030600
  57.1551590  40.8065605  11.1862125   9.0649166  68.2151566   1.2028980
   8.4172821  67.5482864   0.9746696   9.8633566  67.9371262   0.7540936
  42.8443871  12.3239317  41.8732796  42.6325569  12.9393816  41.1714401
  42.0427437  11.8154688  41.9960136   4.3788624  46.5611687  51.8841934
   5.0350213  45.9077530  51.6418419   4.8030577  47.4018211  51.7121544
  47.5190163  35.1548424  79.6424484  48.3652458  34.8828239  79.2873001
  46.8745575  34.6931381  79.1060410  57.0395660  32.5168686  49.9696388
  56.4054756  32.0826454  49.3990173  57.6472511  31.8225937  50.2244568
  70.1415253  11.7691069  20.1869659  70.3429108  12.5389376  19.6549511
  69.4446182  12.0600548  20.7750969  16.4925289  16.4723015  85.8525925
  16.5955105  15.5576830  85.5897293  17.3579140  16.8588638  85.7187729
  84.3969269  15.7978067  88.8446732  84.9688492  16.3574791  88.3194046
  83.9575958  16.4003544  89.4448013  28.4814091  58.4419899  59.3106995
  29.4325504  58.4469109  59.4181061  28.3419094  58.7004814  58.3996811
  53.3027916   9.6957102  16.6516266  52.8551483   9.3606672  17.4285374
  54.2329903   9.6496153  16.8726215  35.4692039  71.1399765  63.8216476
  35.4068909  70.1903000  63.7193565  34.7651596  71.3619461  64.4309769
  52.0174446   4.4472771  69.2098389  51.9482117   3.8284338  69.9367981
  52.9024467   4.3180962  68.8687897  79.8337631  69.9753113  65.5703278
  79.3051300  69.1816559  65.4872971  80.5823517  69.8259811  64.9927902
  62.0659294  41.5013809  73.5222549  62.8762054  41.1551743  73.1483154
  61.8459778  40.8897896  74.2249680  86.0947876  32.6789284  11.2504148
  85.2634811  33.0571594  10.9638777  85.9099503  31.7455559  11.3547239
  38.8052979  55.0751648  72.9402390  39.5863037  54.5809898  72.6911316
  39.0883102  55.6139374  73.6790619  50.6148682  35.7574692  15.8232441
  49.7656021  36.1053696  16.0951710  51.2352104  36.1172714  16.4572392
  57.7591209  19.1229019  62.1265297  58.0375252  18.3708515  61.6038971
  57.5638695  19.8032684  61.4821625  52.2580833  62.9713440  57.5848198
  52.2220802  63.1411476  56.6434860  52.7831535  62.1750031  57.6646385
  50.4003868  43.3235550   3.1591196  50.1884651  43.5806847   2.2617874
  49.8340416  42.5717010   3.3329215  46.4264603  45.6350098  26.7534752
  46.9063377  46.4610710  26.8132229  47.0490074  44.9739304  27.0561962
   5.7544546  56.5766449  88.4345932   5.9664936  57.4945412  88.6041183
   6.3110099  56.3350449  87.6942520  41.5316772  64.8883362  23.5299435
  42.2310829  64.4308472  23.9965992  41.3208160  64.3152313  22.7928410
  31.0654697  67.1322021  25.3383560  30.9525986  66.4240570  25.9724083
  30.1744499  67.3615723  25.0743351   7.2587447  30.0490780  10.3906803
   6.8571243  30.3618870   9.5800734   7.7019925  30.8174305  10.7503996
  12.9407768  24.7217770  22.1889343  12.2700596  25.4024944  22.1342201
  13.3476477  24.8546963  23.0451012  46.6022034  63.6447220  78.0816727
  46.7910995  63.1186218  77.3046494  45.6466141  63.6899681  78.1137848
  22.5889626  48.5526123  29.3817387  23.2507458  49.2101593  29.1674824
  22.9156303  48.1348267  30.1785908  78.6827240  20.3176670  36.0554581
  79.0039520  20.1668491  35.1664734  78.5401764  21.2630749  36.1014519
  10.9454556  15.8752136   4.7320161  11.0595684  16.0625458   3.8002882
  11.3745642  16.6057186   5.1775045   0.5076695  44.9318008  11.4429007
   0.8349508  45.1949348  12.3030634  -0.0080345  45.6805725  11.1435289
  64.8760834  30.2580204  74.4284058  64.8374863  31.1968708  74.6108932
  64.4000549  30.1544075  73.6044540  48.5869827   9.8831539  24.6683960
  48.7106514  10.0596771  25.6010151  47.6427307   9.7600965  24.5710735
  18.8513145  38.2639008   4.6726408  18.2589626  37.5762291   4.3685651
  18.7912178  38.9451790   4.0029540  41.4358902  31.5368080  78.5966492
  40.6024055  31.9515514  78.3741150  41.2532959  30.5978680  78.5608292
  32.0390053  67.9199600  41.7488480  32.9818726  67.7598724  41.7088165
  31.7426014  67.8328705  40.8428688  70.7948380  51.9827309  10.3018122
  70.8279419  51.3665161   9.5700932  71.5365372  52.5695915  10.1544561
  46.1675720   9.3871899   0.2207944  45.6067734   9.3072758   0.9923827
  45.5733566   9.6540394  -0.4805815   1.4276010  45.8717842  71.7781525
   1.9729751  46.1312332  72.5207748   1.9249836  45.1768723  71.3469467
  23.9232807  37.2213211  82.9374619  24.8599739  37.0906372  83.0849609
  23.5252419  36.3815765  83.1668701  52.5382767   7.0383697  46.5786629
  53.4793472   6.9906101  46.4103203  52.2472420   6.1265097  46.5722847
  80.8523712  68.0005341  32.4987755  80.9162598  67.1328812  32.0996132
  80.0343933  67.9761047  32.9953117  18.9063148  51.3789597  33.6945877
  19.4866028  51.5821037  34.4282303  18.9497395  52.1531563  33.1333694
  50.7234421  10.5984344  48.3509521  50.8177109  10.1450148  47.5132408
  51.6074409  10.8993797  48.5612106  57.4401665  46.6746559  46.0409546
  58.0042839  46.2074242  45.4247589  57.9960175  47.3684311  46.3958282
  58.3674088   6.2491589  31.5038776  57.4645004   6.5588045  31.5753212
  58.7462196   6.7757487  30.8000031  66.4496307  24.8441162  14.2335930
  67.0667877  25.2990589  13.6605501  66.9287796  24.0733204  14.5377636
  21.9964390   8.3188114  83.7952194  22.9468060   8.2595253  83.8927917
  21.8119869   7.8705621  82.9698181  11.9713087  40.7291908  57.6068459
  12.7840433  40.8322563  58.1018944  11.3976011  41.4181328  57.9421806
  24.1395302   8.6911697  70.1051331  23.2577820   8.3226137  70.1591568
  24.4653854   8.4083729  69.2506866  83.0056686  46.3735390  50.1734276
  82.1610336  46.6314240  50.5426369  82.8618622  45.4868126  49.8428612
  24.9781780  33.9922791  86.2327118  24.2713013  33.5756035  85.7398224
  25.6996403  33.3644066  86.1939468  15.1296921  45.0623245  46.3728256
  15.6675320  44.6540985  47.0512886  14.6525726  45.7549248  46.8298721
  26.2109070  63.3295441  28.9366207  25.7371655  63.6606483  29.6996231
  26.7356205  64.0728836  28.6393700  40.7095146  55.0281563   5.5380902
  40.4421539  55.9160423   5.3005924  40.2466507  54.4647026   4.9179997
  64.7455673  65.3271790  78.2742310  64.2381210  66.1387787  78.2676849
  64.6524048  64.9936523  79.1665955  78.3878784  70.0213623  38.1510429
  78.4405289  70.4436798  37.2936592  78.2472687  70.7422333  38.7648849
   5.9923081  34.5800705  66.5985031   5.6258197  34.0212555  65.9132004
   6.4560409  35.2693329  66.1230011  57.2389107   8.4344940  74.3863449
  57.3592033   7.6809578  73.8084641  58.1228218   8.6539240  74.6809387
  67.1178055   6.3029475  26.5777874  67.7058105   6.6140108  25.8895111
  66.8156357   7.1001310  27.0130138  18.1461468  19.9061642  66.5856781
  18.3962765  19.4652596  67.3976364  18.8626499  19.7169228  65.9798355
  44.0494919   4.8420186  79.2962646  43.7463150   5.5132160  79.9076614
  43.7192192   4.0203338  79.6595612  81.6999435  46.1398468  39.6469765
  82.5335159  45.6763496  39.7279053  81.8865509  46.8662415  39.0521965
  82.9383163   4.6008654  70.4511948  82.0327530   4.7757001  70.1950226
  83.0674667   3.6726983  70.2561111  50.1906586   0.8886833   6.1169839
  50.6359329   0.1604673   6.5501890  49.8772430   0.5204464   5.2909069
  56.3343163  27.9924145  79.2506027  55.7597618  28.4119625  79.8909912
  57.2113762  28.3021259  79.4765930   2.9906123  47.1202850  23.2649002
   3.2917953  47.9937668  23.5149937   3.1205049  46.5882568  24.0499516
  43.2269745  47.7278328  44.0578041  43.8184967  48.0543060  43.3797569
  43.8006859  47.5146103  44.7937546  72.7606659   6.3847218  86.4814072
  73.4768753   6.9612808  86.2152176  72.3336334   6.8497272  87.2008820
  16.9145222  23.7633839  86.8652649  17.0173969  23.3443890  86.0108032
  17.7688274  23.6636734  87.2853241  85.2710190  50.6940689   9.2295752
  84.9472961  50.9217873  10.1011152  84.7163315  49.9654579   8.9508648
  73.1869278  62.3200340  60.2460518  72.3308334  62.5927773  59.9159927
  73.0096436  61.5182762  60.7379723  85.8799133  51.6448021   3.6550775
  86.7841034  51.4459152   3.8982260  85.4503708  50.7905388   3.6107478
  36.0990753  11.8205471  77.7535095  37.0147285  12.0441599  77.5867462
  35.9187126  12.1812382  78.6216125  15.6635199  39.3000679  20.9960155
  15.0553274  38.5727463  21.1276836  16.3660660  39.1419640  21.6266212
  45.7981491  21.5625706  17.0096912  46.5889130  21.5413055  17.5486469
  45.2758713  20.8234730  17.3214436  35.7834511  61.8777046  59.9216232
  34.8711929  61.7611008  60.1869888  36.2405777  61.1260910  60.2989082
  72.1429672  32.8042870  78.3638306  72.5249634  32.0869598  78.8695450
  71.8302460  33.4228058  79.0240402  83.8622589  34.7912712  55.5942879
  83.2341843  34.0703125  55.5499916  84.1233215  34.8252945  56.5145721
  51.0906067  54.9309120  36.7613564  51.1457253  54.1085091  36.2746887
  50.2325058  55.2877960  36.5321655  16.0225277  21.5244408  84.6628036
  16.0647621  20.5683441  84.6447067  15.5352049  21.7576599  83.8726425
  67.1632385  11.2026072  11.3043356  66.3427353  11.4202995  11.7466164
  67.6222916  10.6304083  11.9192286  24.7346096  67.4466629  53.6887054
  23.8574886  67.5450592  53.3182869  24.6394806  67.7121658  54.6034126
  77.6853561  52.8914299  32.7740173  77.9730835  52.9681053  31.8643131
  77.0708771  53.6156883  32.8927307  61.4421310  64.5262222  70.7246170
  61.0190773  64.7480698  71.5541000  62.2822609  64.1443939  70.9788284
   9.4077368  34.6665154  28.4369850   9.4343548  33.7192345  28.5718231
   9.9279222  34.8106308  27.6464977  73.5084686  16.4465179  57.5883675
  73.9696426  17.1392326  58.0613327  74.0039597  15.6514807  57.7849312
   7.0255995   6.6154017  88.2696915   7.8923230   6.4019232  87.9240723
   6.7231283   5.8032780  88.6761322  35.9526443  63.0731010  24.3653870
  36.5668221  62.5926247  23.8102665  35.8567352  63.9233627  23.9363327
  35.6689110  61.0183258  87.9082108  34.9165192  61.3404884  87.4118729
  36.0689926  60.3620758  87.3376770  50.2053337  13.8743448  28.1787701
  50.0852394  13.2291183  27.4819965  49.6000137  13.5988951  28.8672066
  42.5728416  59.2280502   7.5755353  43.2425690  59.0405693   6.9178495
  42.6304283  58.4972763   8.1910753  59.0368652  39.8655930  86.6203308
  58.2311516  40.2916641  86.3278961  59.1853600  40.2121773  87.5001373
  58.9436302  32.3972664  71.2369614  58.3358459  32.2055969  71.9511719
  58.9504700  31.5997047  70.7077408  67.2905350  60.1134453  36.3953056
  66.8868103  59.2504311  36.4871712  66.6333008  60.6378593  35.9378510
  37.7065392  42.0175133  66.4503860  38.6356087  42.2095032  66.3230896
  37.6952591  41.2915878  67.0741959  38.9556961  48.4750519  64.1512451
  39.7278519  48.3639603  63.5965652  38.2977829  48.8592110  63.5717545
  80.6496277  66.8256226  39.5214157  80.8953934  67.6863251  39.1822701
  80.4909821  66.2965240  38.7396736  75.7916870  12.4743557  32.6518135
  75.9072418  11.5548716  32.4121704  76.6218567  12.7219124  33.0589485
  70.6564713  70.6893921  75.0466614  70.8872299  69.9968338  75.6658020
  69.9940262  71.2079315  75.5032959  68.9217453   8.5796900   9.5532608
  68.4405136   7.8909240  10.0117903  68.7700195   9.3668108  10.0763760
  39.2000694  45.5771675   2.4200404  38.9138870  46.1281929   1.6915476
  38.6270828  45.8234863   3.1461551   4.1742249  49.9104843  12.2374134
   3.4872468  49.6546898  12.8529320   4.6604419  50.5975952  12.6931581
  70.0417328  60.6825523  61.8740578  69.1421432  60.5056496  61.5989685
  70.5713959  60.0603828  61.3754654  58.1502037  43.2364349  87.7105789
  58.6793633  43.7512131  88.3198624  58.4299469  43.5298195  86.8434601
  23.3886871  19.5486870  12.9872332  23.4024105  20.3392639  12.4477606
  23.3606110  19.8733387  13.8872576  79.1352539  33.5721855  86.1833725
  78.1902618  33.5413170  86.3326263  79.4448166  34.2764359  86.7529678
  40.4114494  12.3980970  19.6748333  40.7243195  12.5251637  20.5704880
  40.2593727  11.4555864  19.6056995  86.7350464  26.8695793  77.0060883
  86.4573822  27.7852516  77.0321579  87.1706543  26.7273636  77.8464737
  64.6975250   3.1164420  60.1375237  64.1353912   3.2780461  59.3798180
  65.0644455   3.9743965  60.3508644  85.3572769   3.2070777  39.2697029
  86.1217422   3.6401663  39.6495285  85.0933456   3.7770483  38.5474129
  78.8717804  66.5749741  84.0972137  78.5908890  67.3575439  84.5714569
  79.8203125  66.5465164  84.2225418  75.0343246  44.5921135  10.7780476
  74.9818039  44.2866325   9.8724232  75.1671829  45.5372047  10.7047024
  43.2860527  12.3911343  67.1394577  43.4139137  11.6987696  67.7879257
  43.0424652  13.1600409  67.6548920  29.6882992  70.5126419  74.0138702
  29.7979565  69.8194580  74.6647949  28.7708549  70.7735825  74.0941010
  32.8398781  11.2477007  69.8665161  33.6916084  10.8151941  69.8054886
  32.2653656  10.5908794  70.2599030  82.4732437  55.8117256  62.7190857
  82.7195892  54.9899940  63.1437111  82.6309052  56.4817200  63.3842812
  67.5516205  35.1650085   2.5349348  66.7929077  35.4542542   2.0280564
  68.2929764  35.2729836   1.9391527  18.0721970  39.1538811  82.2341309
  18.7234306  39.8325386  82.0565033  18.2213650  38.4953461  81.5556641
  11.5684528  52.2520370  18.8438625  11.2715073  52.3368988  17.9378529
  11.2998381  51.3704185  19.1023674  12.5193682  62.7949600  18.8874397
  13.2800112  63.0696259  19.3995056  12.4768476  61.8467827  19.0114765
  68.0731354  45.9893761  23.5040131  68.3959808  46.2849426  22.6527500
  67.5149994  45.2387085  23.3010178  33.3350563  71.2133408  78.0840149
  33.3906479  71.9530792  78.6889343  32.4390144  71.2448502  77.7488251
  44.2872429  23.1955547  84.5462265  43.5187492  23.5380802  84.0897980
  44.0374565  23.1971245  85.4702606  74.4553986  27.7846165  59.6970673
  75.1572952  28.4138088  59.5306587  74.6769791  27.3969975  60.5437584
  72.2670135  47.5417290  84.8239365  71.4176407  47.1612968  84.6001740
  72.2481766  47.6256905  85.7772598  63.9045868  35.5894547  81.2314377
  64.2089157  35.7021255  82.1319504  63.2577553  34.8857956  81.2834854
  85.8291855   5.6743274  60.2227592  85.8794403   4.9956384  59.5496407
  85.0249939   5.4765377  60.7027473  56.4882011  58.4909821  30.5288391
  57.2250404  59.0993843  30.4727497  55.7123718  59.0475273  30.4611416
  13.8907919  45.8204765  59.6402397  13.4391003  46.5064354  59.1486435
  13.1962919  45.2152138  59.9001579  46.8414993  19.1459332  88.3478470
  46.6201591  19.4346981  89.2332001  47.7782211  19.3245087  88.2648392
  78.2524490  11.9030485  40.7509117  78.5064163  12.7887335  40.4914970
  77.9449692  11.4952478  39.9413528  30.0470428  41.6457710   5.1120009
  30.2639313  42.0693817   4.2814922  29.9741096  42.3671303   5.7369423
  15.4735928   0.3953552  83.9909592  15.7855587   1.2737910  84.2083511
  15.1484804   0.4718256  83.0939178  57.6555252  41.0892487  84.5168381
  58.5119400  41.2872429  84.1379089  57.0484962  41.6635323  84.0499954
  75.0910873  17.7473774  78.5698395  74.9332047  17.5633907  79.4958267
  76.0124512  18.0038109  78.5302963  16.9291553  50.2300148  39.8438873
  17.2299709  49.3647385  40.1214447  16.0709686  50.0706062  39.4510345
  53.8129997  66.4072266  42.3451691  54.1266136  65.5029449  42.3330574
  54.1908836  66.8023376  41.5594711  13.2811880  37.0748482  34.0007896
  14.1771250  37.3212891  34.2305603  13.1011381  37.5535240  33.1916656
  58.9747543  16.6436138  66.5879440  58.6702385  16.4985466  67.4837418
  59.9249153  16.5391655  66.6380920  47.6483040  47.2569733  19.0238857
  47.7546082  47.1073914  18.0844421  46.9936104  47.9527550  19.0830555
  15.5239811   9.3233652  82.4594345  15.4072208  10.0846834  81.8911133
  15.3828020   9.6608763  83.3439636  12.7905807  14.3394699  78.5728912
  12.5149851  13.8558817  77.7941589  13.7392426  14.2167664  78.6077576
  60.9163246  22.2334518  63.0390358  60.2115631  22.1304359  62.3995590
  61.6431656  22.6022282  62.5370979  47.9637680  56.2308388  59.5628166
  47.4045410  56.8235626  59.0606461  47.4692230  55.4123230  59.6039734
   6.9483075  29.8893337  80.8018036   7.1775212  29.5852013  79.9236298
   7.7882929  29.9733181  81.2530289  25.5560112  60.2808533  72.5980759
  25.0896568  60.5142708  73.4007339  26.2672176  59.7112656  72.8913116
  23.0444336  58.9221611  12.8492785  23.5103149  59.7492790  12.9720125
  22.2015820  59.1755676  12.4729548  52.9771957  43.7681656  42.8606300
  53.9189262  43.9385109  42.8794518  52.6025124  44.5404892  42.4371147
  80.2405090  51.2492065  26.8282547  79.7577362  51.8851852  26.3003387
  80.7747192  50.7690506  26.1955605   2.7451494  70.2870255  22.0451794
   2.2168713  69.4929276  22.1261425   3.4867308  70.0266876  21.4988174
  36.5723381   0.1009732  48.9262581  36.4756546   0.9251420  48.4491501
  36.9256363   0.3573835  49.7781181  26.0229168  58.2820129  32.6600761
  26.6343822  58.5947723  31.9933491  26.2582474  57.3631516  32.7887268
  79.1976776  46.6500893  29.3267422  80.0927582  46.6332626  29.6655235
  79.1317902  47.4863129  28.8656349  67.8765640  42.4504967  48.0256386
  67.2774277  42.8140144  48.6776543  67.4205322  41.6815033  47.6837082
  12.9395781  54.6876488   7.2712531  12.3451910  54.1580124   7.8026857
  13.2022743  54.1081505   6.5561271  39.6107674  44.2674103  64.6394348
  39.6957779  44.8916435  65.3600922  40.0215111  43.4669495  64.9662170
   6.9044943  25.7847080   9.5704031   6.7076473  24.9987011  10.0799885
   7.4684372  25.4755249   8.8614559  58.0573235  31.2328320  60.9270134
  57.6690445  30.3649216  60.8165474  57.3177605  31.8366051  60.8581810
  27.9534931  66.2081451  28.6077328  27.9845009  66.3314438  29.5564518
  27.1936970  66.7169495  28.3247890  85.3036499   0.4393940  39.0754204
  84.3629150   0.3180475  38.9468803  85.4277802   1.3882873  39.0547752
  63.3253860   3.0556629  53.5344696  62.6169281   3.1612082  54.1694336
  62.9595528   2.4828675  52.8604469  65.5341721  34.1375656  49.3837166
  65.2321548  33.2784233  49.0889511  65.2365646  34.1975822  50.2914963
  62.7720375  69.8591232  41.6179237  63.6056709  70.0262222  41.1781921
  62.9267273  69.0661392  42.1312180  66.4989014  25.0735989  49.9023247
  67.3344955  25.0487766  50.3685837  65.8425903  24.9023094  50.5777092
  22.8815842  14.6468086  12.6081028  22.8086777  13.6931171  12.6453791
  23.3334846  14.8203783  11.7823362  68.4470444  67.0214615  35.5972633
  68.5878448  67.9213104  35.3028717  69.2979202  66.5972595  35.4863548
  57.3592606   3.0737038  69.7998428  56.8701591   2.2673240  69.6362534
  56.6959381   3.7027931  70.0835342  10.4258318  60.3567200  88.0769806
   9.6599407  60.8156891  87.7320251  10.2036438  60.1723366  88.9895935
  47.0461960  62.1851120  86.1424713  47.8761024  62.2693253  85.6730042
  46.3767815  62.3164062  85.4709930  81.3586731  61.9041824  61.1293716
  80.4240189  61.9204178  60.9234848  81.7378845  61.3173332  60.4751282
  10.1006708  38.5128632  75.5262375  10.2455854  37.6438179  75.9003983
  10.7738581  39.0619659  75.9281540  43.3016090  60.7489319  22.7045021
  43.3837700  60.3588066  21.8342819  43.0576820  60.0181389  23.2725430
  76.9167862  33.2991066  66.6177368  76.5331192  34.1738853  66.5561142
  77.7860184  33.3907700  66.2275162  41.4020157  44.1725616  14.5327501
  42.2900238  43.8265343  14.6218376  40.8700371  43.6164322  15.1019135
  14.4501038  25.5315247  65.9756012  14.0564890  24.6975174  66.2319870
  15.2736654  25.2878227  65.5530090  22.6381340   3.9522552  77.9103851
  22.9774647   3.8774042  78.8022842  21.8170242   4.4347763  78.0062332
  20.7899189  45.1196404  45.7198715  20.4639149  44.6773796  44.9360619
  21.1224937  45.9585419  45.4006958  44.7605400  52.4816055  39.7314949
  44.0522118  52.7870483  40.2982483  45.1673203  53.2834778  39.4032211
  77.4721603  70.3314133  26.2906380  76.8159409  69.6377487  26.3572636
  76.9681244  71.1435928  26.3410416  83.4976425  71.3635406   6.6580424
  83.5680618  72.0668030   7.3035636  82.5560379  71.2523727   6.5267072
  18.6080685  35.3104172  72.0038452  18.2455482  34.8477287  72.7593079
  19.2332573  34.6938553  71.6227646  76.1801224   5.0032001  16.8626099
  75.4808807   5.1092920  17.5076237  76.9733582   4.8886023  17.3859444
  55.2873955  68.4796600  54.9763298  55.9860497  68.6412048  54.3422852
  54.6539268  67.9406738  54.5025749  38.5941887  13.6445599  74.7447968
  38.1104088  12.9590769  74.2840347  39.4140244  13.2250175  75.0057297
  73.7588272  39.9832039  64.6312561  72.8451233  39.7192535  64.7394333
  73.8406906  40.1865273  63.6994896  30.1242199   0.6443380  11.8055353
  29.3076000   0.6030225  11.3078852  30.6660213  -0.0523530  11.4349909
  15.7292547  40.1577759  60.9388504  14.8566952  40.4157143  61.2360687
  16.0359745  40.9025116  60.4216270  14.6886387   0.3218364  81.1694336
  15.2926521  -0.1143606  80.5684891  14.5663223   1.1941519  80.7948151
   8.0686340  56.5200043   1.9108547   8.7370243  57.0567207   1.4849170
   7.4850273  57.1523514   2.3301053  54.6851463  39.8121109  34.4635544
  54.0604477  39.1283875  34.2216682  55.5417557  39.3919182  34.3867912
  82.3411560  32.9356728  76.5822525  82.0578995  32.5148125  75.7705383
  83.2620544  33.1495476  76.4324493  30.4909744   0.8199881  78.1394272
  29.9209728   0.0539962  78.2071533  30.6897526   0.8888000  77.2056274
  19.2143478  30.7583065  82.8511581  20.1200981  30.8845234  83.1338501
  19.2872410  30.4013386  81.9660110  66.0903473   2.9902251  10.1908054
  65.6384201   2.9020667   9.3516264  66.2667313   2.0898349  10.4636011
  37.2011948   1.7092328  31.4056320  37.5789032   2.5119634  31.7650661
  36.5494156   2.0131638  30.7739372  12.5210028  66.0512314  69.6095810
  11.9627085  66.5654449  69.0263901  13.4120626  66.2366333  69.3131561
  63.7561455  24.5828896  86.6211166  64.5454254  24.6810188  86.0885391
  63.4330940  23.7066040  86.4113617   8.6380072  15.0455866  11.6322050
   8.9066792  15.7554865  12.2153769   9.4375772  14.5400381  11.4861183
  63.0947304  29.8839207  87.7587738  63.7260780  30.5775795  87.9497452
  62.3722687  30.0438004  88.3659973  29.2292709  40.7123795  45.9395218
  29.7196522  41.4076462  45.5009308  29.2653542  40.9428062  46.8678703
  73.5135345  69.6867752  88.3827591  73.1210938  70.4134827  87.8989029
  72.7982864  69.0609512  88.4967728  85.6400223  17.2134380   6.0854340
  85.5677490  16.2590065   6.0770435  85.8487854  17.4457893   5.1806345
  54.4885712  61.5125771  57.1525497  54.8061409  60.6201706  57.2903595
  55.2328072  62.0695724  57.3808136  55.5291595  51.1009789  76.7446289
  55.6070824  50.9614563  75.8008575  54.5890427  51.1994171  76.8953705
  69.8170471  22.0000324  78.1707382  70.0824814  22.5953064  77.4697189
  70.1189041  21.1391163  77.8810196  82.4515228  38.2305336  16.5221272
  82.4910049  39.0082588  17.0787392  82.1329193  38.5547943  15.6797628
  51.9173660  34.4113693  85.7172318  52.2564240  35.3039742  85.7845078
  51.1156349  34.4196548  86.2400970  27.5454082  11.7324066  12.0954885
  28.1010494  12.0381136  12.8124523  28.1424809  11.6377821  11.3533421
  50.9440346  31.8287067  24.5609779  50.2506218  32.1719780  25.1245136
  51.7563896  32.0974960  24.9900017  61.9618416  51.2155914  67.6571121
  62.5244713  51.5051422  68.3753281  61.1041145  51.5893936  67.8591232
  36.9228134  28.3558769  43.9693375  36.6863556  29.2543736  44.1996040
  36.8554764  28.3275909  43.0149307   8.3522501   0.4848137  73.3958511
   8.5876417  -0.2870735  73.9106522   7.5408421   0.2383065  72.9519119
  77.8527527  36.6165810  15.0557489  77.0175858  36.9792709  15.3510218
  78.4925613  36.9423981  15.6887732  62.0387039  49.9456558  39.8501740
  61.6395035  49.0869560  39.9898453  62.4546547  50.1552849  40.6863976
  56.0572319  66.6162186  17.8055820  56.7080498  66.7992172  18.4832115
  55.3570862  67.2481232  17.9690475  77.7888031  61.9033737  28.7274494
  78.4884109  61.7862549  29.3701496  78.0388947  62.6893463  28.2417259
  81.8504868  70.1155090  87.1510696  82.7664642  69.8691559  87.2796021
  81.7980042  71.0168610  87.4689560  78.2468109  52.4338760  67.1943665
  78.4782867  52.0337753  68.0325623  78.2585602  51.7076302  66.5709381
  77.9632034  13.2326660  29.9565277  78.4229431  13.6131058  29.2081032
  77.8841324  13.9538822  30.5808907  58.7364616  30.7829552  10.0302820
  57.8294334  30.8832531   9.7413616  59.1962624  30.4434605   9.2624550
  50.8942146   0.0582160  56.7656784  51.4627724  -0.3965873  57.3870735
  51.4352188   0.7692059  56.4221077  59.6257515  19.5188522  58.7954750
  59.3235016  18.6925068  58.4186058  60.3423615  19.7947998  58.2240219
  42.3357964   1.4985033  10.5912857  42.1793175   0.6533415  10.1700411
  41.8128090   1.4673200  11.3923731  73.5058746  24.2377663  88.7350769
  74.2611847  23.6841526  88.5369568  72.8870010  23.6516685  89.1706543
   6.0006976  54.5132751  78.1796112   6.4399300  55.2547035  77.7629700
   5.2344956  54.3490524  77.6298828  49.9972458  44.7868881  49.7275391
  49.6563606  45.1444931  50.5473862  50.1216965  43.8547821  49.9062157
  21.1337166  57.1280861  54.4636574  21.5111542  57.9832420  54.6697617
  21.7248268  56.4993019  54.8777275  30.5713348   2.4931948  87.6288376
  30.2521400   1.6549009  87.2947617  31.5207767   2.4505596  87.5149307
  82.4915314   5.7266660  46.4713402  83.3587570   5.5251694  46.1198578
  81.9054108   5.6561923  45.7178612  81.5905304  65.3671799  47.2939491
  81.1493530  65.2872467  46.4482498  81.9842834  64.5071793  47.4409103
  24.2231045   2.6428008  13.6034012  24.3685398   2.2159753  14.4477358
  23.4074879   3.1303265  13.7188148  53.6335831  56.9878616  69.7896118
  54.1276093  57.0943527  70.6025314  53.3021355  57.8643227  69.5942001
  12.1741285   8.1675777  62.1588135  12.7061100   7.4551101  61.8043900
  12.0125580   8.7413073  61.4098396  42.5104485   9.3907394  18.3042660
  41.9586487   9.2245808  19.0685558  43.0088387  10.1748257  18.5345879
  27.4085464  40.0070190  44.0446396  26.6663513  40.4798889  44.4211655
  27.9691639  39.8055305  44.7938690  68.9803238  45.6763611  71.7051697
  69.5806274  45.9429169  72.4014587  68.5334854  44.9060097  72.0560608
  60.6687927  15.8307762  36.9560280  60.4667168  16.7344990  37.1982765
  60.6883545  15.3583679  37.7882996  82.5053787  60.6383247  77.2712708
  82.1252823  60.7216110  78.1458130  83.4086380  60.9382820  77.3731308
  78.9158630   5.3555374  10.0723724  78.8747101   4.4483027  10.3748016
  79.3500290   5.3046756   9.2208166  65.6091309  49.8706703  38.7908974
  65.3650513  50.7836227  38.6386528  65.9318771  49.8560905  39.6919212
  46.1865845  31.8429356  82.5804825  46.0903549  31.5855465  81.6635742
  47.0392761  32.2761040  82.6194305  21.7723408   5.0708590  24.1172600
  21.2726994   4.9477158  23.3101501  22.3202934   4.2886443  24.1814461
  48.0699120  43.1080475  16.6422482  47.3396606  42.9735107  16.0382080
  48.4630127  43.9347343  16.3624382  73.8397217  31.6167393  62.6529961
  74.3091278  30.8205585  62.9019623  74.3915710  32.0206146  61.9832420
  53.6476669  29.3051128  21.2344685  53.1435509  29.6762733  20.5103550
  54.4507294  28.9816475  20.8261967  -0.1710880  42.0764236  52.3689537
   0.3089650  42.6989899  51.8228836   0.0443956  41.2193909  52.0011330
   3.4296052  60.2292213  84.7469482   3.1546800  60.8777657  85.3950500
   3.3504128  59.3896332  85.1997681   2.6551166  39.7455368  74.6705246
   2.7215996  39.8324203  75.6214523   2.2698722  38.8797531  74.5354691
  83.7660446  23.8929615  39.2293587  83.3197708  23.2286129  39.7544365
  84.6599426  23.5636711  39.1358528  35.8091583  36.3028221  57.1753311
  36.0188484  36.1634598  58.0988235  35.5234833  35.4445038  56.8624153
  10.4962950  52.1814423  16.3591461  10.2384014  53.0936966  16.2268085
   9.9833689  51.6918488  15.7161541  70.1283340  69.2022781  10.6610403
  70.5807343  68.5906677  10.0800953  70.4814987  69.0127106  11.5302744
  17.9038582  33.8316193   0.8469926  18.7059765  34.0498085   1.3215790
  17.9364910  32.8803062   0.7461296  23.9836597  35.8515396   1.1183954
  23.6971054  35.3545532   1.8846338  23.5615768  36.7052040   1.2150350
  58.3079338  40.4873352  17.5131264  57.4395828  40.8807144  17.4268265
  58.1834335  39.7646828  18.1283531   0.6257901  53.4195175  29.4477329
   0.1674357  52.6704102  29.8284950   0.0104284  53.7765999  28.8073769
  41.8782082  32.3191910  22.6679745  41.2277031  31.6731739  22.9431763
  42.4418678  31.8458271  22.0560551   4.7920070  48.7647057   3.7315271
   3.8443644  48.6970139   3.8482425   5.1587443  48.4247437   4.5477133
  67.9643555  50.7156754  49.4494286  68.0293350  50.8300972  48.5013161
  67.9387054  51.6071472  49.7970619  23.1614723  38.8650856  51.5763474
  22.3582230  39.2013206  51.1788940  22.8624172  38.1937790  52.1896553
  35.1961937  24.8151531  43.3887062  35.9073944  25.1891956  42.8685913
  35.4928284  23.9295177  43.5982018  63.9797592  68.5942535  59.0013390
  64.1556931  69.0956268  58.2051620  63.4779358  67.8364182  58.7011719
  66.7538071  67.1859818  69.5416641  66.2205429  67.2054672  68.7470093
  67.2252197  66.3543091  69.4934311  21.9589825  61.9089203  47.0710068
  22.9122772  61.8973122  47.1566086  21.7519836  62.8091469  46.8200607
  80.3388214  15.5785227  20.0124187  80.0348892  15.0774927  20.7692699
  80.1489182  16.4895763  20.2363529  13.7242517  13.3840017  84.8614426
  13.5041275  14.2963514  85.0495758  13.9384604  13.3767710  83.9285431
  55.0844078  49.9731789  55.8672562  55.9073105  50.4281769  55.6882591
  54.7441750  49.7443810  55.0023155  70.7710495  26.3537331   6.9784031
  71.0463486  25.7002277   7.6213431  69.8336716  26.4654617   7.1367612
  67.0347519  19.9534531  31.1013260  67.0948334  19.2379246  31.7342892
  67.4789734  20.6871223  31.5263271  55.3834267  32.5927277  12.6011190
  56.1013794  32.9211693  12.0599146  55.8124619  32.2454948  13.3831596
  54.2636642  22.9966774   6.8325267  54.3215179  22.0459919   6.9278235
  55.1682663  23.2794399   6.6984630  19.7915936  44.0706787   8.6552382
  19.0934162  43.4173088   8.6117887  19.6534214  44.5135384   9.4925060
  42.4282417  36.2834015  35.6015930  42.9545326  37.0381088  35.8655357
  41.9187737  36.5963249  34.8540955  42.5069923  70.4462585  12.7567005
  42.7118149  69.5521088  13.0301609  43.3572159  70.8836746  12.7117634
  50.5641327  66.4369202  80.6628723  51.4433022  66.8072357  80.7413330
  50.0912971  66.7796936  81.4212723  45.4843330  49.1735649  61.6271667
  45.0505638  48.9008141  60.8186607  44.9869919  49.9372177  61.9199409
  38.0966644  52.5440331  52.1254158  38.3744812  53.4597588  52.1031113
  38.9086723  52.0500870  52.2389488  21.1834774  37.0206947   5.0982752
  21.6559677  37.6588936   5.6327753  20.3364353  37.4322052   4.9267783
  75.4231033   0.4641205  63.6883736  75.3595123   0.1425440  62.7890511
  75.4688568   1.4161013  63.5996552  40.6511040  21.7212925   2.1172860
  40.0944061  22.4306965   1.7962496  40.0676308  21.1816616   2.6507561
  66.2789764   3.7959843  78.5229950  67.2251205   3.9337044  78.4774628
  66.1187515   3.0436633  77.9532852  85.4167862  25.2070885  62.4833794
  84.5499039  24.8076286  62.5553398  86.0150528  24.4657993  62.3895569
  16.9343548  49.4830856  87.0958710  17.5942593  49.1882324  86.4683228
  17.3032303  50.2812958  87.4740524  49.0723572  28.9459896  13.2276993
  48.1996765  28.6106949  13.4332199  49.0747566  29.0395889  12.2750893
  56.8597450  61.1922188  54.1370811  56.9405975  60.9456978  53.2157135
  55.9401855  61.0309715  54.3483582  12.2965403  20.2163944  61.3215866
  12.8069010  20.9358215  60.9498520  11.4305801  20.3064995  60.9238091
  20.6467381  12.2536221  66.7477722  21.3982372  12.6957531  66.3528061
  20.2931423  12.8906660  67.3685608  60.2527618  24.1256065  48.0616798
  60.1422691  23.1772556  48.1298981  59.7409439  24.4793129  48.7891197
  45.4307861  14.9422646  38.2330704  45.8973923  15.6681204  38.6473694
  45.7463951  14.1626768  38.6900864  12.8030415  65.7750015  25.9998131
  12.6734610  65.8006592  25.0517712  12.3168526  65.0021591  26.2871723
  69.2584991  63.8761292   8.2550688  68.3167877  64.0094910   8.1472454
  69.6143951  63.9544830   7.3699512  72.2860260  68.2394257  65.1008453
  72.4133224  67.8226471  65.9530945  72.6043320  69.1340103  65.2217789
  31.1663017  32.6043320  72.2497253  31.2098732  32.6137772  71.2935638
  31.5923977  31.7848034  72.5008163  -0.1137647  15.7346239   8.5272837
  -0.0639536  16.5037441   7.9596548   0.4614947  15.0924215   8.1114902
  -0.2847638  69.2935791  19.4250736  -0.2891971  69.2132645  20.3788891
   0.6346374  69.4377289  19.2011242  42.6865234  66.5946198  41.6851006
  42.0517578  66.2730942  42.3253517  42.3949814  66.2242737  40.8519859
  15.8048010  33.9918823  87.6447830  15.8701992  33.1109695  87.2760696
  16.4559536  34.0068855  88.3462219  34.2982407   3.1772816  23.0345306
  33.5850754   2.7030168  22.6070938  34.9097786   3.3793049  22.3264065
  62.6131325  17.8336105  73.1633148  63.2235641  17.7693424  73.8978043
  62.0652122  18.5900211  73.3727417  74.3239441  58.8800468  58.9042053
  74.5100479  59.1973991  58.0205269  75.0870361  58.3498039  59.1339264
  40.3816223  49.3256187  12.1764135  39.4899216  49.6652985  12.1007786
  40.3723488  48.8052101  12.9797335  47.3275223  66.9002991  43.4370880
  47.7901878  66.1754684  43.0166206  46.4215355  66.5989380  43.5049286
  63.3057671  55.7074585  25.5176735  64.1174088  55.2000618  25.5128651
  62.6189766  55.0622864  25.3494282  11.4280033  31.2249050  32.8094139
  11.3497906  30.9163990  33.7121544  10.6219320  30.9308605  32.3851280
  53.2160873  71.1571274  27.7822628  52.5311241  71.5197601  28.3440037
  53.0322647  71.5199509  26.9157753  49.4761696  57.0646477   9.0662270
  49.3920555  57.4178047   9.9519110  50.0907898  56.3363686   9.1561365
  81.8588638  29.0601387  71.9525223  82.1923218  28.1755600  72.1027069
  80.9953232  29.0638924  72.3654633   1.0064381  25.0192051  57.3718414
   0.9624829  25.9411411  57.1182022   0.3715623  24.9360104  58.0833511
  15.9543438  37.8548508   8.5541410  15.3146439  37.6143188   9.2243357
  16.7326050  38.1135025   9.0477400  22.7019901  60.3748741   5.8518434
  22.9719753  59.6251678   6.3822031  22.4266853  61.0330086   6.4900417
  73.9114838  19.8203659  76.8459702  74.6322174  20.2791176  76.4143219
  74.1904449  18.9050331  76.8700714  49.1246033  27.4385967  44.5112648
  49.4577370  28.3321648  44.4288597  49.6897278  26.9186478  43.9398460
  47.0208397  24.5292301  64.5226440  47.3069229  25.0150013  65.2962189
  47.4412308  23.6735458  64.6081467  50.8985405  13.8332357  73.5666656
  50.3869247  13.6464214  72.7795258  50.2520599  14.1275930  74.2082596
  82.9145050  63.2593727  28.4731560  83.3157806  63.8755836  27.8603802
  83.1128311  63.6182747  29.3380775  56.7835999   9.1733704  77.3382492
  57.1849976  10.0066404  77.0917358  57.5136032   8.5548716  77.3662720
  86.6151199   6.5357957  66.4090271  86.6910934   5.8849754  65.7112503
  85.7544708   6.3734875  66.7952576  52.6809502   9.7918282  41.2527390
  52.1930733  10.5682430  41.5273056  53.4824638   9.8153400  41.7754745
   5.1026816   9.0383921  19.8438263   4.5923867   8.2907581  19.5325813
   5.6328073   8.6856718  20.5585213  50.4095039  59.9739418   7.6385326
  51.1870346  59.6180954   8.0687056  49.9582100  59.2066727   7.2865882
  50.0581207  60.9606285  48.7343063  50.2908058  61.8890381  48.7464867
  49.3524284  60.8821335  49.3762360  49.3444939  13.2900877  59.3328667
  49.2233620  13.7439156  58.4988403  50.1761360  13.6243324  59.6688423
  65.1633606  48.8955002  49.1993217  65.4107208  49.4810753  48.4836769
  65.7943192  49.0858345  49.8935089  41.6951256  23.5717468  24.4549007
  41.8400192  22.6648884  24.7248020  42.0906105  23.6288681  23.5850945
  67.5156250  -0.1258799   6.3025141  68.0570221   0.4625427   6.8287096
  67.1709976   0.4279961   5.6020246  33.5779724  55.8596992  18.9112892
  33.0592842  55.1685524  19.3229961  33.0142632  56.2008705  18.2169781
  71.9962997  11.9178419  41.0561256  72.0905228  11.0385141  41.4223747
  72.8810501  12.1591272  40.7818451  55.8005943  69.1558685  68.5323410
  55.5784416  70.0750809  68.3842697  55.5759201  68.7197571  67.7104187
  60.1547890  58.3832092  37.8382072  59.5060196  58.4687958  37.1396370
  60.9347458  58.0424347  37.4002914  49.1956558   5.0409751  71.4002838
  49.0956650   5.9012642  70.9926910  48.9010963   5.1675625  72.3022003
  24.0275135  57.3236961  17.4584084  24.0678844  57.2108955  16.5087357
  23.4315681  56.6363525  17.7561264  57.7424126  34.6214027  44.2628746
  57.3480034  34.3807945  43.4245529  58.6736603  34.4289360  44.1534576
  11.1223068  21.8465786  11.8951597  11.5239286  22.7122364  11.8205452
  10.6929016  21.8546944  12.7505999  78.0395737   1.0773956  42.9280205
  77.1209183   0.8797640  42.7456932  78.4773636   0.2265816  42.9018440
  72.7473907   1.7680910  31.0272121  72.2197342   2.4144258  30.5581017
  72.6556244   0.9656339  30.5135269  42.9594917  29.7147007   9.5349598
  43.6970024  29.7228527   8.9248400  42.7438622  30.6385460   9.6624146
  31.2564240  36.7677574  70.9565048  32.1007385  37.1939011  70.8089600
  31.0133686  37.0197678  71.8473740  40.2322617  48.7676811  60.2445374
  40.3596840  49.6763496  59.9719315  39.3181763  48.7279320  60.5257835
  64.3728638  60.0682945  83.2425690  65.0296402  60.7629662  83.2907104
  64.1037903  60.0563240  82.3240433  68.2660904   5.0610232  10.1965933
  67.7007523   4.2894406  10.1607027  68.0961456   5.4426060  11.0578403
  48.8350410  62.4892387  57.2157822  49.2713051  63.0307693  57.8735428
  48.8122025  61.6141014  57.6028786   7.1347623   7.9971356  24.4061203
   6.5693121   7.4881186  24.9869823   7.3005834   8.8093882  24.8846397
  37.2040176  67.7521210  53.9111748  36.8756905  67.9231262  54.7938957
  37.1614838  68.6011276  53.4711647  73.6778870  23.7878380  70.8807373
  73.8714752  23.6785583  71.8117676  73.6369781  24.7357635  70.7542648
   7.2351465  51.6343536  79.3280029   7.1954036  51.0072136  80.0500412
   8.1610661  51.8687439  79.2650299  35.9905777  41.4755135  15.1708088
  35.3603134  41.6198692  15.8766146  36.0762520  42.3298683  14.7477598
   6.8803740  35.0580254  60.9957085   6.6473689  35.4113770  60.1371727
   7.1436596  34.1547661  60.8195267  85.6163101   5.4140096  54.2677116
  86.1023788   5.2912145  53.4523048  84.8620758   4.8301530  54.1871948
  85.1702042  70.7023468  53.4087601  84.7168121  71.5208969  53.6103516
  85.2027054  70.6757736  52.4524841  83.4640884  30.6415844  23.3023777
  84.1750565  30.0418930  23.5284805  82.6945953  30.2762184  23.7389832
   0.7179391   5.1839042  24.5531826   1.3436518   5.8068719  24.1835537
   0.3677002   4.7173891  23.7942829  71.7394028   5.5015283  12.0631962
  71.2375336   4.9442577  11.4683790  72.5066681   5.7645073  11.5548792
  21.0349483  69.3224640  47.9476700  20.9089546  68.8115082  47.1481209
  21.2941971  68.6774979  48.6057281   8.7519112   0.3372066  23.1945839
   8.9017982   0.0640469  24.0996532   7.8040638   0.2714707  23.0784073
  36.9257507  49.9790382  48.9669495  37.8539429  50.0566292  49.1875687
  36.8432426  49.1066666  48.5817299  45.6918411  58.2402229  23.1055393
  44.7691765  58.1870003  23.3547249  46.1429214  58.4955177  23.9102631
  17.6958313  30.7534485   4.6210432  17.8013783  29.9812927   5.1768036
  18.5901814  31.0148811   4.4019027  60.8078194   2.3203259  54.7233238
  60.9588089   1.5131857  54.2314301  60.8343468   2.0499706  55.6411667
  86.3223877  51.3182869  55.4657822  86.5928726  50.6412430  54.8455544
  86.0020294  52.0330009  54.9155235  15.2694721  49.9217949  54.2431107
  14.6021872  49.4408493  54.7326584  15.6633081  50.5089073  54.8884163
  24.5528088  53.3790512  19.1228371  24.0425835  52.6170540  19.3971729
  24.4356499  53.4166145  18.1735783  19.0456467  37.7427177  65.9575958
  18.3662567  37.1717796  66.3163300  19.3990974  37.2558861  65.2130814
  47.7103996  13.4775009  11.1118374  47.9070396  13.8020020  11.9906225
  48.1933899  14.0615807  10.5271997  25.8076382  33.3645020   0.8263468
  26.2914848  33.9070282   0.2036165  24.9192924  33.7207870   0.8146726
  60.0461922  19.6173573  78.1012497  59.2312050  19.7293034  78.5906296
  60.6924438  20.1239643  78.5931168  52.7987328  70.1944275  78.5172348
  52.7512932  69.2574844  78.3271942  52.0935669  70.5802383  77.9974976
  80.2354889  23.5429440  32.1891823  80.8110886  22.9329090  31.7279091
  80.8027725  24.2779064  32.4221001  71.8955231  17.0974331  70.5529633
  72.4327774  16.7409000  71.2603989  72.3606262  16.8534622  69.7527161
  69.0541687  51.1588821  23.9857368  68.2469330  51.2749176  23.4846001
  69.2759247  52.0389977  24.2897892  42.7127609  65.4570694  35.9575005
  42.0830536  66.1094208  35.6506729  42.5229034  64.6771240  35.4360847
  44.6942291  54.5633621  14.9613771  44.5718918  54.3734360  15.8915348
  44.1773911  55.3543892  14.8084459  21.0255909  58.5954323  18.7541313
  20.1673584  58.2899590  19.0479965  20.9228783  58.7279167  17.8117237
  76.1131973  39.2399521  28.7985706  76.6342697  40.0411606  28.8512707
  75.2507782  39.4930344  29.1278458  28.5784912  30.2900486  17.9236908
  28.4301262  30.8579617  18.6797962  29.1039162  29.5671368  18.2665596
  73.8573303  68.5357742  35.2569923  74.6803131  68.8863525  34.9163513
  73.4640732  69.2673340  35.7328072  71.1544189   2.8647151  10.5998669
  71.1660461   3.4976318   9.8818741  70.6751633   2.1138499  10.2495184
  11.9353752  34.3671761  61.7085381  11.4506702  33.5614853  61.8878593
  12.8412867  34.1572266  61.9354248  65.8665466  68.9920425  49.2968750
  66.4041367  69.7823029  49.3489952  66.3831558  68.3210678  49.7431259
  16.8906250  44.3554420  14.4892797  16.7275391  43.4866791  14.1220083
  16.0215340  44.6870804  14.7149534  67.1824875   9.8775196  14.7789583
  66.7787094  10.7166195  15.0005646  67.1013947   9.3546171  15.5765982
  17.8936062  38.1359940  22.4700089  18.7891788  38.1943817  22.8028336
  17.4891014  37.4425354  22.9912834  72.3351517  35.4296761  68.4074249
  72.9382248  34.7100754  68.2211075  72.4454803  35.5984573  69.3431396
   9.4905558  38.9515762  72.7646942   9.7142143  39.7646332  72.3117676
   9.2510014  39.2282219  73.6491776  78.5128632  24.7993546  11.8826494
  78.3176346  25.7240696  11.7309160  77.8451767  24.5127125  12.5057621
  83.1641769  48.4605827  17.8937531  83.4354782  48.2929344  18.7962608
  83.8883209  48.1319351  17.3609924  79.1606445  17.1383686  50.2921600
  79.2246780  16.1917400  50.4187584  79.8884354  17.3516884  49.7081718
  17.8212662  15.7864647   4.6155610  17.7249546  16.2821236   5.4287505
  17.4826107  16.3708668   3.9373150  34.4095573  68.0907745  43.8360863
  34.5811577  68.8266220  44.4237175  33.4705772  67.9273987  43.9247246
  34.7606850  64.4508057  84.3859329  35.5568886  64.9567032  84.2235794
  34.7767029  63.7598839  83.7236633  63.2427788  68.7209854  52.0519791
  62.7344856  68.6926270  51.2413864  62.7692604  68.1446915  52.6518974
  85.4467087  22.2079296  51.7914619  84.8198776  21.6457806  51.3361588
  86.2100296  21.6484585  51.9348602  59.9623756  53.1780624  22.1613884
  60.2461433  52.2880592  21.9525642  59.9615860  53.6330070  21.3192139
  18.0376110   0.6327711  15.9846373  18.5842209   0.9086787  16.7203865
  17.1600552   0.9423335  16.2089100  11.1576262  59.7902527   7.1453600
  10.2952538  60.1268005   7.3888373  11.2104959  58.9353638   7.5726838
   4.3871307  50.3863792  62.6971092   3.6541228  50.7309952  62.1870384
   4.9752660  51.1336517  62.8062592  34.9665222  44.1281433  15.6893845
  35.2622375  44.6684647  14.9566936  34.1916809  44.5803757  16.0230579
  67.0894394  34.7502060  80.2001419  66.4875946  34.9657097  80.9125824
  67.3314362  35.5975685  79.8264542  12.7607584  38.8507919  32.0747528
  13.4632912  39.4394073  31.7986870  11.9866028  39.1667671  31.6088371
  74.8973999  10.4629469  58.7330093  75.6716919  10.2449274  59.2518234
  74.5977173  11.2991104  59.0897408   6.2702346  58.1895103  26.8108196
   6.2237616  58.8021469  27.5448112   6.4226432  57.3373909  27.2193546
  28.5560169  61.5597458  82.1079330  27.8223438  61.9505005  81.6333084
  28.8628960  62.2554512  82.6893539  56.8840981  58.0027962   8.6674385
  56.8101616  58.9486656   8.5405712  57.6429520  57.8966827   9.2411242
  23.7108288  56.1166039   0.4095292  23.2041779  56.1930695   1.2180400
  24.2360764  56.9162560   0.3794864  82.5792389  23.7401867  46.8994713
  81.7153168  23.7618885  46.4878998  82.8569717  22.8271637  46.8253899
  84.2345886  36.1779480   2.5300860  84.2398758  37.1282692   2.4156737
  84.9530945  35.8664398   1.9796793  19.2230110  32.6998024  87.7471237
  19.1033268  33.3028107  88.4808044  18.3353119  32.4303207  87.5113220
  66.2358856  27.1815434  45.2910347  65.6984863  27.0145569  46.0653419
  66.5684357  26.3198128  45.0399094   8.8559380  30.8628559  23.2250500
   8.8074675  29.9135590  23.3378277   9.3431721  31.1702957  23.9894562
  48.1894951  35.2507286   0.0151715  47.4236412  35.1294327  -0.5460687
  47.8348274  35.2670937   0.9040900  65.6029663  42.0063629  39.8296165
  66.0141754  41.1773109  40.0741959  65.6088638  42.0034447  38.8724403
  53.6564178  13.6343489   6.0844283  53.7544746  12.8858433   6.6729484
  53.1575546  13.2920704   5.3426666   7.3870912  51.3308334  73.4843063
   8.0252190  51.3743706  72.7721710   6.6142364  51.7793312  73.1411133
   2.9450786  57.6504631  41.5509491   3.4320667  57.8285103  42.3555450
   2.1704431  57.1689987  41.8414116  53.6094170  17.8444405  74.3572540
  52.8282089  18.2254906  73.9563141  54.1351585  18.5992374  74.6220398
  84.3169479  35.6152611  76.6333389  84.9491501  36.3236313  76.5118713
  83.5010376  35.9571037  76.2677383  78.4464722  28.4779358  80.6410294
  78.1224670  27.9805241  79.8901443  79.2789154  28.8452778  80.3438187
  19.9369926  65.7065048  39.1752510  19.7215214  66.5704498  39.5265503
  19.1611023  65.4503784  38.6766281  24.9412556  46.9803772  19.2176819
  25.8129826  46.7916451  18.8702583  24.4825649  47.4078674  18.4944344
  75.1973495  34.5271759  78.3589783  76.1028137  34.4668655  78.0544739
  74.9533768  33.6248360  78.5651169  44.2926445  12.7985382  13.9802628
  44.4787712  12.1928272  13.2628345  43.4157295  12.5556726  14.2773666
  13.7421207  35.7241249  54.2129021  13.5956879  36.1170540  53.3524399
  12.9130049  35.2951698  54.4245605  55.5484200   4.2909446  39.6205635
  55.6646042   4.9166355  38.9055519  56.3153954   3.7207687  39.5668831
  39.6611099  21.6353760  88.0022964  40.0454369  22.4416924  88.3463593
  40.1049805  20.9352589  88.4808884  72.9060745  20.3584347  81.6758652
  72.2587280  21.0125351  81.4125595  73.7396927  20.7048149  81.3575516
  37.3015137  24.1464920  62.1975555  37.9583282  24.1429424  62.8938408
  37.6926918  23.6250305  61.4966316   9.2236481  49.3107071  77.7529755
   8.4298449  49.7906532  77.5168381   9.7562904  49.9480515  78.2287064
  33.3490868   6.0821657  74.1893692  33.2103806   5.4714308  74.9132385
  32.9305267   6.8935266  74.4769974  14.8312006  45.3512878   3.4586337
  15.4237976  44.6963272   3.0897312  14.8780489  45.2110443   4.4043446
  40.7377739  46.0806046  53.1111755  40.6081543  46.0854034  54.0595474
  39.8522377  46.1000557  52.7483025  75.3123093  42.0096169  38.5266876
  75.6042480  41.9161034  37.6198997  75.2694092  41.1126785  38.8581963
  15.5741196  59.9594193  75.6289597  15.2006407  60.7409973  76.0362473
  15.5510273  59.2957954  76.3183823  20.2729053  23.7285652  22.6437321
  20.6148148  23.9206524  21.7705593  20.9467869  23.1837673  23.0503159
  85.4932632  40.8853798  34.5488968  85.7870026  41.3220520  33.7493553
  86.0136337  40.0829620  34.5885620  56.4159889  43.9193535   1.5321748
  55.6288109  43.4092369   1.7228692  56.1853676  44.8157959   1.7759726
  47.9435234  33.0925407  17.2231255  48.3392715  32.7721863  16.4125805
  47.8847771  34.0403175  17.1026955  30.2573490  58.3078499  29.4734268
  30.4248848  58.0921707  28.5560131  30.8621101  59.0245743  29.6652679
   0.1207947  41.3565216  17.9258099   0.8001658  40.8755493  18.3984108
  -0.5240997  40.6898842  17.6893044  70.8791275  50.5063400  49.8021469
  71.1575089  49.5907669  49.8236008  69.9228516  50.4657326  49.7915344
  81.2677155   6.7869368  15.2723465  81.8901215   7.0796118  14.6066294
  80.4091492   6.9052529  14.8660297  18.2472858   6.2063251  69.3242645
  18.2927876   7.0094128  69.8431244  19.0375023   6.2248669  68.7844086
  48.6153831  17.3989067   5.2751117  48.9368324  18.3004265   5.2622046
  47.8258247  17.4183884   4.7343259  76.2173920  12.7854071  47.6851501
  76.6502914  13.3905344  47.0829430  75.6240158  13.3376532  48.1942253
  42.2436600  18.6779556   3.8900833  41.5090294  19.1906204   4.2273154
  42.6771812  18.3372822   4.6725364  77.0227585  48.8491707  54.4384041
  77.1908035  47.9068489  54.4426231  77.3622742  49.1567726  55.2788429
  53.4220619  54.6256256  80.0444489  52.9859695  53.7926865  80.2240982
  52.7582092  55.2890282  80.2326813  38.6876335  51.6196709  63.1738091
  38.2151871  50.9784508  62.6429024  38.2588234  51.5851784  64.0288925
  84.6146393   1.0462635  57.0634384  85.4234085   0.5422553  56.9734039
  83.9528503   0.3967548  57.3009224  67.4614410  45.9378357   8.7400808
  67.3267899  45.6128387   9.6302938  67.9405441  45.2363548   8.2989197
   3.8336022  44.6329002  21.3411140   3.6691294  45.2307396  22.0703411
   2.9651108  44.3216476  21.0860157  72.3486633  36.0234795  24.5985756
  73.1293259  35.4730606  24.5366364  71.7776718  35.7090378  23.8976326
  70.7343140  15.5335608  74.5837708  70.3282928  15.0411654  73.8703766
  71.3579330  14.9206667  74.9732361  73.2461777  70.9362030  65.2658386
  73.5317688  71.3598404  64.4563980  73.8852005  71.2163162  65.9211349
  26.1741467  34.9629059   9.8882561  26.4277782  34.7165794   8.9987478
  26.5317516  34.2676506  10.4404955  67.4040833  25.6076584   6.9435682
  67.1641464  24.8690300   7.5031137  67.4966660  25.2265167   6.0704179
  15.6134892  21.2002964  13.6072044  15.2770042  21.8227825  12.9625969
  16.1057682  21.7392826  14.2263861  51.7535973  48.0793915  29.5014400
  51.8061256  47.6731339  30.3665581  52.4791603  47.6930847  29.0109749
  74.9383392   4.3699770  86.5360031  74.1969757   4.9746580  86.5046768
  75.5062943   4.7226639  87.2210312   5.6658301  31.9398308  67.7587662
   6.1010518  31.8858147  66.9079437   5.6935492  32.8698959  67.9833603
  14.3533392  71.1253662  23.9569302  14.9151497  70.3649597  24.1065178
  13.7925835  70.8685608  23.2249222  55.4791298  51.7522507   1.3145049
  56.0704842  51.1850281   0.8197402  55.4592628  52.5697250   0.8169384
   3.0524483  62.4063721  73.9186630   2.7519739  62.9929123  74.6128693
   3.2040503  61.5706863  74.3601151  36.4159431  44.9607849  28.5777760
  36.6784096  44.7977104  27.6718235  37.2399902  45.0995979  29.0445881
  11.2190962  51.6139717   8.2695265  12.0401859  51.1351967   8.1563129
  10.6183109  50.9727249   8.6491241  20.4200897  28.5323753   4.4268708
  20.3226280  28.4075928   5.3708844  20.5025826  27.6458874   4.0753522
  20.1237278  14.6363783  12.7056379  21.0733814  14.7361889  12.6390991
  19.9552784  13.7428122  12.4066467  72.3656006  22.3137722  39.1981201
  71.8028946  22.8495617  39.7571564  71.8361893  21.5428829  38.9939575
  78.3789902  31.9365425  73.4716797  78.0534592  32.3714066  72.6835480
  78.5160904  32.6472244  74.0980759  57.1170197  37.1104317  66.6195526
  56.7544975  37.3616219  67.4690933  57.9912491  37.5000648  66.6075439
  84.0291138  43.3998566  23.3105202  84.1476898  43.8660889  22.4829922
  84.1794510  44.0639687  23.9832649  32.4583321  63.8279953  35.3696709
  31.7990665  63.3561325  35.8785362  32.0388832  64.6588593  35.1461601
  18.0640163  48.1953201  60.5787010  17.9200153  47.6233711  61.3326035
  18.1974087  49.0636215  60.9588242  51.1209984  26.2645626  53.4789619
  51.3866272  25.6523514  54.1651611  51.5286560  27.0942516  53.7272835
  18.5471992   4.0969658  60.9831734  18.7354164   4.5421686  61.8093681
  19.1792793   3.3789754  60.9485855   0.7599606  48.0369453  61.4611664
   1.3617158  48.7431831  61.6964264   0.7606109  48.0306168  60.5039902
  53.3034744  67.1559982   5.0708728  53.9681320  67.6869507   5.5096869
  52.5186386  67.2624359   5.6084008  50.2831993  14.6571703  34.7635231
  51.1678696  15.0211334  34.7969475  50.4057617  13.7570581  34.4618492
  82.9155273  56.1856880   5.4756117  82.2121582  55.9405022   6.0767636
  82.7103500  57.0853386   5.2211175  82.5532150  58.8889275  48.4628067
  82.5709381  58.0029411  48.8246651  82.6934814  58.7669945  47.5238228
  51.9304733  32.1144829   7.9375105  52.5452271  31.3816643   7.9734330
  52.4781494  32.8777733   7.7540312  78.2976074  58.6408653  50.0284157
  77.7261353  58.7004509  49.2628441  77.7667313  58.1967354  50.6895905
  28.4541874  52.8668022  66.0461273  28.0024128  52.5993500  65.2457504
  27.8215675  52.7009544  66.7450714   2.4910059  53.7373734  48.7709045
   3.0741944  53.1497154  49.2513046   2.3193486  53.2829170  47.9461403
   0.2269856  53.0190086  11.9613438  -0.0523481  53.8406601  12.3651943
   0.4254736  52.4441528  12.7005157  79.2670822  70.5802155   1.9239050
  80.0346069  71.0398712   2.2642632  79.3107834  70.7099533   0.9765459
  18.0869160  59.0479660  83.8380508  17.6022282  59.1493835  84.6572113
  18.9129543  59.5070686  83.9900894  21.8180885  39.7547798  58.9136200
  22.2086735  39.3534698  58.1373291  21.2548008  40.4470558  58.5676537
  44.7275314   2.6206188  84.7357483  43.9507408   2.7364860  85.2829285
  45.3843079   2.2528260  85.3270187  49.0210381   1.8953853  14.6796398
  49.7306480   1.2822258  14.8712778  48.8166008   1.7442683  13.7568188
  55.9679985  41.6278000  30.0955334  55.1911507  41.4682159  30.6315117
  55.6574821  42.1886444  29.3847141  62.9805489  39.3819580  77.0308228
  62.0972328  39.4979362  77.3808670  62.8559113  39.3127136  76.0843048
  15.3134537   5.2287264  25.5996876  14.5465784   4.8082561  25.9887104
  15.0351734   6.1297784  25.4356842  38.4866219  34.2175903  14.3761768
  38.4963608  34.8787498  15.0682793  37.6850395  33.7184830  14.5329971
  28.4455662  21.3771362   3.0296435  28.8272381  22.1222115   3.4937794
  28.0075169  21.7655659   2.2723677  35.4903297  22.7269077  12.1720018
  35.1064339  23.6009769  12.1022816  34.7436829  22.1314945  12.1069384
   6.7891331   8.9495382   1.1519420   6.6981587   8.1394091   0.6502981
   6.0640411   9.4986420   0.8536838  11.7559309   7.6883516  82.8593826
  12.0375290   8.2871532  82.1677399  11.8827972   8.1818008  83.6697159
  10.4954586  48.1635857  56.6884804  10.8010931  48.0763245  55.7855911
  10.3675318  47.2628860  56.9861450  73.4349289  20.4673462  68.2045517
  73.5948639  19.8183231  67.5194092  73.9149246  20.1371346  68.9640198
  69.1390076  41.0925560  80.3951416  69.0675888  41.0576744  81.3490295
  69.8326111  40.4676476  80.1838760  52.3674622  49.5058403  57.1915703
  53.2781868  49.7593727  57.0414467  51.8649712  50.3006477  57.0126534
  12.7279882  57.9060440  64.6537552  11.9438362  57.3571167  64.6499252
  12.6027012  58.4974899  65.3958664   0.1449671  25.7924919  40.8948822
   1.0953748  25.7272739  40.9881744  -0.0152114  26.7193108  40.7171669
  72.7190094   1.1437621  53.4029617  72.1003876   0.8465790  54.0702095
  73.5475540   0.7286932  53.6426735  65.1397324  28.0944366  24.7843628
  65.2319183  28.9348793  24.3355980  64.8521729  28.3249054  25.6677818
  36.4686470  67.5078888  21.4061947  37.2962532  67.9884262  21.4257870
  36.2148972  67.5054474  20.4832458  25.8754749  61.7082939  17.9595108
  25.0723991  61.9015999  18.4431763  26.3365803  62.5459976  17.9163151
   3.7314718  49.4386673  28.9515858   3.5944147  50.1530533  28.3294125
   3.2747686  48.6922455  28.5636292  66.8024063  39.3865318  79.8768845
  67.3826828  40.1475830  79.8944321  65.9335938  39.7515984  79.7091980
  37.5416031   3.3147218   1.8428520  37.9656830   2.4607651   1.9273891
  37.0513382   3.4204326   2.6581423  11.3562574  42.5055733  39.1730614
  10.4206295  42.3941345  39.0044975  11.4005766  42.8305702  40.0723076
   3.1928115  53.3971901  11.5792971   2.3433678  52.9682884  11.4757528
   3.7022710  53.1052246  10.8233604  32.2305374  45.9549408   0.6616063
  32.3548279  46.4276695  -0.1613841  33.0484772  45.4739151   0.7873975
  84.0043335  34.2677307  15.1803770  83.8940659  33.6957054  14.4208651
  84.9117584  34.1316795  15.4529581  24.2415085  51.0223389  29.8813934
  24.3462601  50.8881531  28.9394531  25.0995617  50.8125038  30.2501011
  67.0817261  35.2829437  17.4590893  67.8685150  35.0927086  17.9699821
  66.8318024  36.1679230  17.7247639  33.3699646  43.3091354  23.5347748
  32.5193558  43.3814964  23.1018066  33.2575455  43.7755051  24.3630810
  46.8682404  29.7841625  68.4060135  46.9890518  30.0417728  69.3199463
  47.7268982  29.9166946  68.0043030  27.6370182  10.8508081  72.7435303
  26.9234943  11.4748163  72.6103745  27.3643093  10.0690737  72.2631683
  56.1459389  45.0415154  68.6849594  56.2621613  44.2996216  69.2785187
  55.2084122  45.0493355  68.4920502  65.5661316  69.6916275  40.5109100
  66.1865005  69.2968369  39.8981209  65.9075394  69.4657898  41.3761673
   0.4319751  46.2940063  32.2008286   1.2134128  46.7797852  31.9369926
   0.1186258  46.7502670  32.9817696  11.9833364  30.1967392  23.2808800
  11.0637712  30.2295952  23.5446072  12.2823849  29.3320084  23.5620251
  42.5597954  50.2090149  76.1238403  43.3988876  50.5705948  75.8385010
  41.9914474  50.9727135  76.2237244  11.2220697  63.7765465   0.4684473
  11.2298574  64.5248566   1.0652729  11.3366289  63.0152855   1.0372999
  50.4019699  26.2401676  17.8720245  51.1367455  25.7246418  17.5394974
  50.5473671  26.2824650  18.8171711  10.2564783  44.9932175   1.2615687
   9.8969574  44.1065979   1.2318684  10.1897621  45.3090363   0.3604361
  30.2518311   2.0504527   1.3156153  30.4710178   2.0181241   0.3844097
  30.7472610   2.7969663   1.6525104  63.2309532  45.4384689  47.1592598
  63.5828781  46.1620140  46.6407394  63.3140831  44.6733322  46.5901527
  60.8825340   1.1406161  81.4863815  61.1769485   0.7194051  82.2939301
  60.4016113   0.4563170  81.0208969  70.5356750  25.2381382  64.0791931
  70.4900208  24.3400135  64.4070969  69.6717529  25.3987484  63.6996346
  35.5976295  68.3946075  63.3268738  35.8730888  68.5445557  62.4225121
  34.7323418  67.9925842  63.2501640  61.1467361  16.0654793   4.8483982
  61.1283455  16.9429855   5.2303357  61.9609909  16.0400276   4.3458295
  20.7690353  35.1101875  67.2861862  20.1351852  34.4149208  67.4624634
  20.3674412  35.8986244  67.6513214  19.9892273  49.6279221  48.1930122
  19.7696838  49.0426750  48.9179382  19.1587811  49.7674561  47.7379074
  78.4682236  26.6716728   8.2855892  77.6067123  26.9336033   7.9609170
  78.7408142  27.3941345   8.8512535   2.6619501  51.5790215  27.3553467
   1.9339623  52.0799217  26.9874249   3.3237033  52.2377815  27.5659447
  53.2545509   5.1298013  86.7777863  52.5356750   4.5090337  86.6590652
  53.1694336   5.7380934  86.0436401  83.4442902  14.3995466  21.8261604
  83.5455627  14.4311314  20.8748569  82.4974060  14.3919563  21.9661045
  62.4723930  25.7154675  44.3525352  61.7299805  25.2672768  44.7577248
  63.2416916  25.2520332  44.6836624  80.1107178  65.4810028  44.6494026
  80.5347214  65.2753983  43.8162270  80.0926361  66.4375610  44.6793175
  26.5341778  61.6174469   5.3346510  25.7133331  61.9456596   4.9676051
  27.2004662  61.8709412   4.6958776  61.4799271  12.8894691  50.3406258
  61.7035751  13.7767620  50.0596886  60.6513023  12.9883966  50.8094826
  30.0869560   9.0741215  85.0629044  29.3759537   9.3646612  84.4916840
  30.3344803   9.8572607  85.5544891  52.1186905  24.2136593  16.4682865
  53.0144234  24.5421944  16.3911037  52.1713409  23.5289345  17.1350784
  61.2307816  38.1152077  59.0170746  61.2669792  37.2463989  58.6169586
  61.3356171  37.9517937  59.9543800  66.0904770  49.7532692  51.6945419
  66.0650101  50.5203476  51.1225471  65.4494629  49.9437981  52.3794022
  74.4858322  36.0962524  80.8650589  74.7374344  35.4606628  80.1950226
  73.7899475  35.6616859  81.3581390  33.9180107  56.6001358  82.0906525
  33.1237297  56.9950485  82.4503555  34.1797218  55.9511147  82.7437286
  62.7349091   3.6386883  81.8014450  62.3406525   2.8853722  82.2411194
  62.5957565   4.3682632  82.4052582  58.8854179  52.8935547  26.2502975
  58.1653938  52.2869873  26.0774536  58.5598869  53.7428932  25.9521694
  71.4691391  22.4928856  80.3374176  70.9120789  23.1297874  80.7849350
  70.9316559  22.1714649  79.6135178  71.7548752  57.7212181  29.9785995
  71.7304688  57.7970695  30.9324780  71.6055984  58.6126709  29.6635456
  38.3028221  65.6147385  81.3703156  37.3858337  65.3753891  81.5047531
  38.7480316  64.7812347  81.2177200  50.3015213   5.5653887  65.6341629
  50.2410469   4.7562523  66.1419754  50.6787529   6.2017541  66.2415924
  71.0703506  14.4493504  27.9712467  70.9460373  14.4275513  28.9200897
  70.2291794  14.1660423  27.6129112   6.9309726  58.0822258  79.9580994
   6.6633010  57.3625488  79.3865738   7.8585062  58.2125130  79.7607727
  79.3270569  60.6769753  88.2044754  79.6113663  61.5906830  88.1812668
  79.4979706  60.3957176  89.1033173  73.8111191  22.0730133  42.0776596
  73.0024796  22.4793434  42.3894768  73.7505112  22.1203537  41.1235542
  21.8920746  61.8750496  56.3895340  21.4972649  62.5678864  55.8600693
  21.2027931  61.2163429  56.4745636  59.8461647  59.7709236  22.0127048
  60.2570038  60.5940971  21.7484570  59.7105331  59.8628464  22.9557781
  59.1070061  14.2584391  11.8952999  59.3758621  13.4320755  12.2966347
  58.4601936  14.6197720  12.5013571  26.9244213  61.2872276  60.0775566
  26.8263664  62.0563774  59.5162888  27.8696747  61.1439972  60.1246033
  51.0762024  15.4533958  25.7577972  50.1459503  15.5044231  25.9774799
  51.5191231  15.3916550  26.6041069  24.8771038  32.8730087   5.6634665
  24.4284401  32.1291466   5.2614627  24.3772545  33.0523071   6.4598551
  21.0334873  22.2434807  68.4189453  20.9530106  21.3803234  68.8247986
  21.8741112  22.2158489  67.9619751  67.3670578  48.7952652  68.8495865
  68.1061478  48.3037071  69.2078400  66.8256302  49.0026703  69.6112061
  39.4652481  31.6566715  14.9546776  40.3891106  31.7978058  15.1615324
  39.1018257  32.5379639  14.8682089  33.1468391  55.3384666  69.1483688
  33.1753731  54.4028511  69.3484879  33.9486847  55.6905975  69.5347366
  60.4117508   4.1189084  63.7738113  61.1428604   4.5509644  63.3321800
  60.2143173   3.3605337  63.2241592  81.4012146   9.6614056  55.5078011
  82.2730789  10.0103674  55.3225708  81.4866562   9.2466125  56.3662186
  50.4646339   8.4560719  81.5979462  49.9546585   8.0345325  80.9062347
  49.8106461   8.8829346  82.1514053  68.4615402  65.9460983  88.6669388
  68.0228806  66.7825012  88.5112686  69.0240479  65.8246460  87.9020386
   9.7303123  37.9510918  18.8450928  10.1024570  37.3394165  19.4803810
   9.9933128  38.8151398  19.1620884  12.8881531  62.1279373  29.5069561
  12.0435514  62.0622139  29.9525566  13.4188433  62.6813431  30.0799694
  52.3323097  59.8119316  37.1452217  52.1048660  59.1758118  37.8233452
  51.5271301  59.9207878  36.6391945  42.6593246   6.3216286   0.7727162
  42.8270226   6.4181485   1.7101556  42.2687454   7.1557651   0.5121427
  40.2872543  53.3127785  34.6157570  40.7638359  53.9262772  35.1749725
  39.6620293  52.8888855  35.2036705  30.8775616  42.2854881  22.0323200
  30.6551819  42.9608002  21.3914375  30.1763191  41.6389198  21.9520626
  85.1007538  -0.1268176  65.3995743  85.5808029   0.4469582  64.8024368
  84.1850891  -0.0340111  65.1365585  62.6452827  37.2634544  11.3971138
  61.6971893  37.2268372  11.5236330  62.7557716  37.6243591  10.5174704
  58.7143517  26.9795609  85.3709335  59.4065857  26.3437920  85.5521622
  59.1044617  27.5852833  84.7407379  26.5853443  39.4542656  81.3465958
  26.9982548  39.7350044  82.1632462  26.2091026  40.2548447  80.9808807
  52.4915237  20.6048622  56.2568741  52.0682068  19.8120861  55.9274216
  52.0259781  20.8051910  57.0688858  50.3827057  41.4117279  33.0683784
  51.0429840  41.1341591  33.7033691  50.1530075  40.6113396  32.5963097
  65.3692245  64.6936188  60.6789246  64.6410065  64.2919540  60.2050171
  66.1484375  64.4276962  60.1907158   4.5699391  12.8906050   4.6384330
   4.6322446  12.3750000   3.8343797   4.1663690  13.7141123   4.3642111
  48.5605240  38.5293770  14.4098434  48.0468941  38.5850143  15.2156467
  48.1779938  37.7932510  13.9323273  85.1208191  25.0956821   0.1272707
  85.4990082  25.9294567   0.4066013  84.2926254  25.3356228  -0.2883798
   0.8653272   3.3020067  15.9241610  -0.0080260   3.3822761  15.5407000
   1.4492801   3.6920371  15.2736940  30.2302437  60.6508331  47.5466995
  30.5865154  59.9192505  47.0426254  29.5350075  61.0068626  46.9934196
  17.9557209  18.7109032  28.4278831  17.7321701  17.8540688  28.0644360
  18.9045219  18.6789894  28.5503159  18.1994648  10.3117018  73.2606812
  17.7695122  10.9037533  73.8778152  18.5754528   9.6243296  73.8105774
  67.3048706  53.1702766  76.9752655  68.1062088  53.5205612  76.5861740
  67.3317642  53.4652939  77.8854675  24.1594410   6.1320100  81.2504120
  23.4296188   6.7496848  81.2958984  24.9411335   6.6785107  81.3311996
  20.8334389  28.9407692  15.7004576  20.3233929  28.1307793  15.7005119
  21.7179337  28.6668320  15.4578505  48.5156631  65.7395706  40.2070351
  48.7992058  66.6066055  40.4970093  49.2918396  65.3586960  39.7962875
  63.0783424  44.0966530  57.3004227  63.2421761  43.2771492  57.7671165
  62.7131424  44.6814995  57.9643631  58.0158424  59.8665314  32.8806648
  58.9267502  60.0863342  33.0760269  58.0685883  59.2650757  32.1379013
  61.4621162  48.5402756   4.6729727  60.6035576  48.1701317   4.8781552
  61.9431648  48.5021019   5.4996343  48.5387688  57.1349182  64.5045166
  48.6924782  57.4370537  63.6093483  49.3973007  57.1846924  64.9248428
  69.2308731  36.9254379  28.3871174  70.0599136  37.3748360  28.2229042
  68.5814590  37.6275597  28.4260960  56.1815376  61.7652740  80.4696960
  55.9067345  62.5551949  80.9352417  57.0432587  61.5608101  80.8328247
  71.0751038  18.4235916  82.1755295  71.3955002  19.3221607  82.2539825
  71.4302292  18.1146030  81.3420715  28.0729656   3.1740232   6.1756792
  28.8971481   3.3674202   5.7289658  27.6070652   2.5905740   5.5767179
  44.8507042  49.2841301   8.4757929  44.8778801  49.9068184   9.2022581
  45.1487999  49.7871246   7.7179203  37.7566185  53.3540878  27.9109497
  37.7762833  52.4031868  27.8030720  37.0728798  53.6492653  27.3096180
  10.8102951   8.0587921  22.2120838  10.6441774   7.9966383  23.1527081
  10.4063931   7.2724156  21.8450603  10.6745682  10.9197998  76.4818497
  11.0674057  10.6390810  77.3083496  10.4556923  10.1040516  76.0314255
  54.9588699  59.0931091  10.7536736  54.8369789  58.2355614  10.3462667
  54.0974159  59.3150063  11.1070747   5.6101322  67.4092865  17.7881737
   6.1520748  66.6685715  18.0599670   6.2379379  68.0983887  17.5708504
  55.4654083  64.4675980  59.5444145  55.7941399  64.5019073  60.4427376
  56.0523567  63.8575249  59.0977211  66.9947662  37.7776871  53.3318329
  67.8928909  37.4493027  53.3739014  66.6307068  37.3788757  52.5414886
  34.0676384  27.5694675  73.7999344  33.8838120  26.8810940  74.4391403
  34.5176697  28.2487431  74.3022232  45.3746185  40.2316246  43.0071030
  45.0029449  41.0801086  42.7659264  45.9083366  40.4149818  43.7802505
  73.8437119  63.0084686  10.6413288  73.5450897  62.2106018  11.0777597
  73.2431107  63.6880341  10.9474306  61.4246407  41.5563240  27.1708775
  60.6720772  42.0762215  26.8887711  61.7422256  41.1402130  26.3694878
  39.9738312  51.6343384  60.1788635  39.9411278  52.3912315  60.7639084
  40.0012779  52.0121078  59.2997932   7.0999970  42.0899315  46.2218285
   6.7207885  41.6861992  47.0024872   6.5168519  42.8227234  46.0238647
  84.2907028  31.6045322  31.0568523  84.0950394  30.9007187  30.4383068
  83.5835876  32.2373238  30.9311428  47.7625923  50.3684616  74.3228149
  47.6501427  50.6329231  75.2358551  48.1988068  49.5178490  74.3718185
  64.8931122  35.3813286   9.9762144  63.9978256  35.3827782  10.3148737
  64.8141403  35.0232811   9.0920200  66.7622986  45.3138351  83.7069321
  66.4136658  44.4232025  83.7451401  65.9908829  45.8681602  83.5891418
  23.6522160  38.6550941  30.4738541  23.7742119  38.2275200  31.3215141
  24.0308895  39.5266953  30.5885410  76.7011261  34.9200172   6.4999609
  77.0242386  34.0473175   6.2758460  76.1049118  35.1453705   5.7858381
  48.8208885  51.8409348  14.4538641  48.7329865  51.9368134  13.5055428
  49.7533073  51.9760933  14.6228561   6.7157054  53.0908585  17.8081188
   6.0944538  52.3634148  17.7748585   7.3888612  52.8029366  18.4247169
  65.2467270   1.3806812  73.1284180  64.6991501   1.9902779  72.6336517
  64.6410751   0.9504818  73.7320328  47.5831070  45.6754456  45.6437988
  46.9727783  45.4212227  46.3359718  47.0485649  46.1707153  45.0231514
  55.9836197  10.5015221  34.4883614  56.6267815  10.0475893  35.0328941
  56.0153732  10.0438213  33.6482811  45.4810104  54.0185089  83.2836304
  45.8510666  54.8525696  83.5728149  45.9327431  53.8282776  82.4614487
  20.6007748  65.4464111  36.5417480  19.7560368  65.5886536  36.9688492
  21.2471504  65.6141434  37.2275238  36.7055511   2.0806446  60.1309204
  36.0973587   1.9422861  60.8570023  37.5425034   1.7453258  60.4523315
  51.0375557  11.8079176  78.4367905  51.5366707  11.8762760  77.6228867
  51.4348602  11.0705910  78.9001846  14.6446905  42.7869377  61.1711044
  14.7123623  43.4438934  60.4782410  13.7037010  42.6484642  61.2787895
  28.1830444  51.7960472   2.8483737  27.3823586  51.3861351   2.5211034
  28.7973003  51.0698204   2.9556968  14.5234537  38.1185112  18.0504436
  14.3239689  38.2836189  18.9719524  14.0086689  37.3424225  17.8292694
  80.5625229  22.6574001  45.2049408  81.2866058  22.0418777  45.3192215
  80.7843475  23.1433468  44.4106598  39.6654587  53.1496086  83.8843079
  40.5691338  53.3900833  84.0886993  39.1828003  53.9751968  83.9252625
  65.2154541  33.3213081  26.0415192  65.1249084  34.1253166  25.5300446
  65.1865616  32.6193390  25.3914146  72.3889771  15.2354717  63.4031982
  73.3339920  15.1344442  63.2893639  72.0059433  14.7285833  62.6872444
  61.4375992  49.6410637  60.6364975  61.8773689  50.2551689  60.0485268
  61.9823570  49.6311378  61.4235001  34.1947021   8.2015419  71.9134521
  34.6588554   7.6701431  72.5602951  34.4990463   7.8703203  71.0685272
  70.3854752   4.3960757  54.4778824  70.0595551   4.2758431  53.5859451
  69.5968399   4.4203486  55.0198212   9.1145287  45.8272591  43.6987114
   9.1552029  45.9724236  44.6439667   8.3140993  45.3186874  43.5687180
   5.9387746  62.7391357  18.6219692   6.6981111  62.2625351  18.9573689
   5.4917369  63.0593109  19.4054718  47.7776909  65.0903625  30.0222054
  47.4765472  65.6501465  29.3065338  47.3969231  65.4813309  30.8085823
  30.5238934  67.5212936  39.4493523  30.9444084  66.6833801  39.2562256
  31.0494175  68.1673889  38.9775276  35.9341278  46.4676971  65.3263702
  36.8693810  46.2712059  65.2722702  35.6918373  46.7260780  64.4371262
  55.3633194  59.4651756  39.1908913  55.2997208  58.5169449  39.0766983
  55.2065582  59.8227158  38.3169212  70.9222031  45.8723068  60.7640495
  70.5558014  46.6200447  61.2361374  71.2825546  46.2490997  59.9612999
   1.5499452  53.9678268  25.7731743   0.7373053  54.3689499  25.4650383
   1.9820447  54.6581001  26.2762108  80.8806686  57.0017281  -0.1465238
  80.3006439  57.1532173   0.5997000  81.3922806  57.8074188  -0.2196488
  62.7876549  20.0898762  18.9674110  62.8043861  19.1536083  19.1657982
  61.8824997  20.2638588  18.7092285  82.6908722  38.2494698   9.2205067
  83.5944748  38.5262299   9.0683517  82.3882675  37.9397697   8.3668413
  21.1237221  35.4041824  26.3389263  20.7349167  36.2706108  26.2190762
  20.8485832  34.9093513  25.5671291  48.8758430   2.0746903  18.6104546
  48.2869568   1.3272940  18.5063152  48.3893280   2.6880274  19.1612263
  80.8160324  36.9674797  49.8252678  81.6264572  36.6207123  50.1983566
  80.3172226  36.1906776  49.5722961   5.3249774  31.2686710  78.5094681
   4.8119936  30.4609909  78.4824219   5.8119550  31.2156868  79.3318329
  16.6660614   2.1483884   1.7879719  16.4409733   1.5923171   1.0420815
  15.8625107   2.1905496   2.3063927  43.7929764  11.1219721   4.7563381
  43.9500504  11.9756994   4.3529658  44.1876297  11.1915388   5.6256142
  32.5714874  11.7795677  85.8594131  32.9662514  10.9077492  85.8774567
  33.0445251  12.2424164  85.1678619  26.8424702  53.0735283  31.9338703
  26.8028412  52.9033508  30.9927540  26.6596432  52.2255478  32.3385124
  58.7404099  51.4897423   1.8222353  58.1390343  51.8286743   2.4853377
  58.1723442  51.0725670   1.1745460  32.8412094  47.9526634  39.4975662
  32.3788033  47.6473007  38.7170753  32.9210167  48.8984871  39.3739777
  60.9597702  15.7623453  62.5209732  61.7822418  15.8036785  63.0088921
  61.1153603  16.2984581  61.7434120  52.7545738  63.7410316  71.6749039
  52.6106644  64.1597214  70.8262482  51.8984375  63.7655144  72.1023026
  24.7004795  48.2012482   6.9093633  23.7452641  48.1756783   6.9653835
  24.9696598  47.2861443   6.9891057  66.2507858  33.7403183   7.0854344
  66.6806412  33.1545410   6.4622769  65.3153305  33.5892944   6.9500265
  28.0651703  44.5127335  69.1300812  27.1337013  44.3058395  69.0539856
  28.2349739  45.1209373  68.4107132  56.8733826  46.1111221  82.3700562
  57.5682716  46.5299988  82.8778992  56.1716690  45.9601250  83.0033264
  57.8122063  40.0264740  34.4033051  57.8084030  40.0234451  35.3604927
  57.5074959  40.9021225  34.1653481  32.0903206  23.3181896  73.3634567
  32.9099121  22.9410686  73.6832733  32.1636620  23.2768936  72.4099655
  46.2997894  30.0347633  43.0589371  46.6410103  29.3721333  42.4583397
  45.4782867  29.6647625  43.3821449  47.0386505  30.5980511  71.2811432
  47.6711845  29.8891068  71.3974838  47.0862312  31.0976448  72.0962372
  77.4320374  11.1238880  44.7047272  77.0159912  11.0039816  45.5584030
  76.7711334  11.5722017  44.1770439  17.1955509  30.2424603  17.2343063
  16.3247929  29.9301910  17.4802780  17.6832237  29.4473743  17.0192623
   8.8599234  65.2243500  55.6310883   9.1491928  64.4698792  56.1442490
   9.1527348  65.0342789  54.7398186   2.9733415  13.2094250  70.8347473
   2.3846970  13.3899422  71.5676498   3.8461709  13.1918573  71.2272949
  86.2909698  51.2069206  40.3622475  86.4204102  50.3809700  40.8283844
  86.5995789  51.8770409  40.9721069  77.5877075  38.2451591  36.1924820
  77.2729034  37.7156868  36.9251404  78.3686218  38.6828194  36.5313950
  45.3968353   6.5942817  76.9431305  45.0655403   6.3827348  77.8158951
  44.8069229   6.1351919  76.3452377  46.1895905   2.5722260  54.4227905
  46.8096619   1.9671080  54.0158806  46.6739998   2.9559221  55.1537857
  47.8845520  22.4755192   0.2272466  47.1787071  22.1054955   0.7574347
  47.5611763  23.3377571  -0.0339144  67.9164581  54.5069389  68.3705826
  68.7168732  54.8817711  68.7381058  67.5214462  55.2244720  67.8752670
  12.2344933   9.4826279  10.7860031  11.5199213   9.5194778  10.1501884
  12.8853998  10.0992165  10.4507847  71.5055923  13.6302586  69.3813858
  71.3353195  12.8353195  68.8761063  72.4598618  13.7030144  69.3990784
   2.0328977  50.6084480  35.5750961   1.3227373  50.1978378  36.0683517
   2.0034482  51.5293541  35.8345108  53.3990898  66.7971268  53.6061935
  52.9054718  66.9449768  52.7995262  52.7716370  66.3825607  54.1983681
  27.0682697  62.4350777  24.3426037  26.5336475  62.1207581  25.0717220
  26.4340019  62.7543755  23.7007427  54.6909714  23.3113956  53.9871368
  55.3543129  23.1447697  54.6567955  54.9522362  24.1436729  53.5930710
   6.1597209   6.0079222  14.7749424   6.1866732   6.3326387  13.8749056
   6.9442863   5.4658341  14.8575850  21.1021004  61.6261292  14.9766483
  22.0401497  61.6590233  14.7889881  20.7083473  62.2155724  14.3334150
  58.1542664  47.2227898  17.0352631  58.2281952  46.3898048  17.5009937
  57.2160110  47.4122353  17.0307808  84.9457092  52.8493004  53.6428871
  85.4054260  53.2606087  52.9109612  84.0767136  53.2505798  53.6358032
  17.6232185  62.5847321  66.7549515  17.2155037  62.8720207  65.9379578
  17.1679668  63.0790558  67.4365768  66.7289124  30.1016941  53.0078545
  65.8227997  30.3352585  53.2094536  66.6570129  29.3945675  52.3667374
  83.3509598  14.8679504  82.4994812  83.2659683  14.2491980  81.7741165
  83.6873550  15.6672592  82.0942993  76.5737686  15.1250210  80.3331680
  77.3774567  15.2473364  79.8278351  76.8339386  15.2873392  81.2399216
   3.8422372  68.1749268  29.6388512   3.7334700  68.3847885  30.5664082
   2.9869459  67.8423538  29.3666363  62.4376259   6.6247439  56.3472214
  61.4977303   6.7587357  56.4691772  62.8398056   7.4228292  56.6900673
  55.0056763  65.3240433   0.5143403  55.9196510  65.4989929   0.2901286
  54.9567070  65.4784470   1.4577340   6.2660279   4.9490209  10.7267580
   6.8450608   5.2129273  10.0117016   6.2043586   5.7249780  11.2838221
   8.6644650  62.8648300  24.1136780   9.1950598  62.3533516  24.7244892
   9.0568399  62.6969223  23.2568932  73.2617569  68.1818924  23.8296108
  74.1581879  68.1842499  23.4939899  72.7723083  67.6505051  23.2016754
  64.7637405  63.7272987  86.1554947  65.1204758  62.9080238  85.8123322
  65.5072632  64.3301315  86.1573105  53.4043007  18.5945473  30.2386436
  53.3525276  17.6407166  30.2999496  52.5968132  18.9050617  30.6482525
  58.0767975   6.3838048  39.5615044  57.9471321   6.4276133  40.5088692
  58.1464310   7.2980790  39.2867584   9.7891827  68.7711563  71.2889709
  10.6349916  69.2085571  71.3865204   9.3027210  69.3240585  70.6775055
  19.5886898  14.4117260   0.8191006  19.5394783  13.4559221   0.8349097
  20.4997749  14.6082840   1.0370924  68.3777847  56.7268715  37.9793320
  67.9721298  57.5456467  38.2644310  68.5589523  56.8605766  37.0489883
   7.6537189  46.0865250  68.5049133   7.5868335  45.3726387  69.1390457
   8.4798374  45.9253578  68.0490799  53.7350388  11.1695518  72.2896805
  53.7553864  10.5410805  73.0113754  54.4256516  10.8749313  71.6959763
  51.7653923  70.2341537  31.8226528  51.5884857  70.6397705  32.6714249
  51.8631058  70.9717255  31.2204342  17.9925022  34.6887093   7.5041337
  17.4512005  34.1241341   8.0559292  17.6018887  34.6180077   6.6331263
  84.9744186   7.7590384   9.7337866  84.4855957   8.3184299   9.1301603
  84.6788177   8.0290813  10.6032276  30.5405045  65.8963470  31.4442940
  31.0380211  66.2735367  30.7187328  30.4299717  64.9759064  31.2059822
   4.3389831  56.9045715  15.7473383   3.6596837  57.3249779  16.2746372
   3.8945127  56.6586227  14.9360514  69.5202637  36.8306007  53.3810349
  69.7921219  36.7028618  52.4721832  70.3012009  37.1685677  53.8193817
  46.5998764  65.6038208  32.3968315  45.7155838  65.6852036  32.0395737
  46.4769821  65.1798325  33.2461624  10.8998585  43.8531685  71.5615234
  10.9793148  44.7857933  71.3611984  11.7953415  43.5711174  71.7480469
  27.1976528  58.7725334  46.8201828  27.7610111  58.1360016  47.2602806
  27.8034821  59.4215508  46.4624443  64.6129227   5.6871090  54.3066978
  63.8424187   6.0294523  54.7598648  64.4038162   4.7681136  54.1395035
  72.3100052  12.2273073  47.3089867  73.0135727  12.2373543  46.6600494
  72.7379837  12.4700670  48.1300430  84.2946320  53.7590790  74.0164719
  85.1449127  53.3293266  73.9238815  84.0764923  54.0516052  73.1315536
  33.9781876  40.1946182  76.2856598  34.1507683  41.0205994  76.7375488
  33.3489914  39.7414665  76.8469086  17.9440765  24.6149731  22.0578804
  17.5310211  23.9628944  21.4918327  18.7228146  24.1761036  22.4002113
  12.9035482   8.8088751  74.7831039  12.5486193   9.4890070  74.2106705
  12.7717838   7.9944801  74.2976837  46.8037148  35.5055122  19.1578007
  46.8084793  35.6569099  20.1029415  46.0139084  34.9876099  19.0021763
   6.3743682   1.7008461   6.0752034   6.5381885   1.5810717   7.0106435
   6.1203380   2.6199906   5.9922953  77.8482056  50.4209557  37.5488815
  77.2567139  49.8134384  37.1047096  77.2963791  50.8647308  38.1929169
   4.9305677  18.6395206  88.8066559   5.8686790  18.6437187  88.9968185
   4.6234093  19.4982243  89.0973663  48.1199341  52.2749863  53.4986191
  48.8250465  52.7247391  53.9642067  48.0521622  52.7366676  52.6628647
  56.4306259  61.9747772  22.2898884  55.9701614  62.6831398  21.8399734
  57.1577187  61.7540436  21.7077808  37.4743919  70.2737732  45.6632729
  37.6707191  70.8634491  46.3912621  36.7664223  69.7181625  45.9893227
  56.6083336  22.3585739  49.1620216  56.0024910  23.0933037  49.0652885
  57.1829147  22.6152802  49.8832664  15.2440720  64.9910355  87.2112198
  14.8199110  65.6922607  86.7166443  14.8906193  65.0748978  88.0968094
  77.8310852  46.1784782  51.0553322  77.3091736  45.4339828  51.3546028
  77.3301773  46.9472046  51.3280754  12.8021622  30.2959881  35.6004562
  13.2882004  30.3917065  36.4195023  11.9132652  30.5789738  35.8149605
  86.7594070  16.5752926  59.7169266  86.9842834  16.3214054  58.8218231
  85.8123474  16.7126942  59.6961479  77.8437042  61.4584122  68.1144791
  78.0414276  62.2428360  67.6028061  77.2997513  60.9251556  67.5348434
  66.5465240  31.1656227  16.3616734  67.3389893  31.5059433  16.7769108
  66.8329391  30.3680305  15.9166470  14.6609449  50.2765274  77.9944077
  15.1328287  49.4447479  77.9531479  14.8867130  50.6377144  78.8516159
   6.3238206  36.6750832  63.5096931   6.3264275  36.0347557  62.7982101
   5.4258995  37.0060310  63.5307846  85.1214676  58.0830307  64.6398163
  84.2078094  57.8046837  64.7030334  85.1194992  58.9855499  64.9586945
  29.0131474   9.2740946  88.3738098  29.8391209   9.3562164  88.8505249
  28.4919186   8.6680698  88.9003906  67.6437531  51.0104179  60.7379875
  67.5651627  50.0900078  60.9887848  67.2585449  51.0539207  59.8628006
  48.5044785  48.8530731  57.2377396  48.0752449  48.6871033  58.0770531
  47.8070107  49.1878510  56.6740952  34.6672630   4.2668777  72.6043777
  34.4017792   4.3020487  71.6854019  34.3411369   5.0849552  72.9793777
  26.6399765  57.3239670  50.8105850  26.1088276  58.0732422  51.0802231
  26.2405281  56.5753860  51.2536430  59.3985939   5.3596368  76.1946716
  60.0442581   5.2649927  76.8949509  58.6085854   4.9433856  76.5394287
  44.7312355  30.3330917   3.4797559  45.0707283  30.2265453   2.5911474
  45.4855232  30.6266670   3.9907303  80.4905167  50.3781128   3.4323337
  80.2782516  51.2968712   3.2678523  80.1034393  50.1923027   4.2878318
  59.1149406  50.9036064  40.7844276  59.6578102  51.3325958  41.4458618
  59.4880524  51.1850204  39.9490700  67.5352554  60.1697845  49.5419044
  67.4344254  60.6627769  50.3561707  66.8950958  59.4614067  49.6099625
  24.6535168  57.3266640  35.4440231  24.9310646  57.0790710  36.3260078
  25.0464516  56.6650620  34.8747101  46.0636940  66.8093948   6.7976723
  45.8612556  66.7907639   5.8623104  45.8519783  65.9283447   7.1061497
  67.5009537  70.9967651  78.7132721  68.3238297  71.3029556  78.3320007
  67.6188812  71.1060715  79.6568680  18.1687012  42.8264885  88.2882309
  18.5800152  43.5931854  87.8891983  18.5859146  42.0799103  87.8583603
  84.6078644  43.1416397  58.3272362  85.0105667  42.7369843  57.5589104
  84.8712387  42.5825081  59.0581474  11.0286674  61.4178391   1.9751858
  11.2890940  60.5487938   2.2804275  10.8607264  61.9129448   2.7769942
  82.7123260  63.9875488  65.5344620  83.3701477  63.7492523  66.1876984
  82.1007156  63.2512398  65.5307922  28.2298031  64.4531403  64.8541718
  28.1228828  64.6162949  63.9170609  29.1611671  64.2585373  64.9586716
  46.1031036  48.3361664   4.8279986  46.5106239  49.0475807   5.3220115
  46.6444855  48.2485580   4.0434847   7.0681934  44.4581909  35.7573471
   6.5067706  44.5220566  34.9847183   7.0436211  45.3333549  36.1442719
   4.1447973  29.1773052  63.5626335   3.4917579  29.8444748  63.7739487
   4.5702634  29.5015450  62.7688599  84.6152191  47.4024162   2.5317054
  84.4938965  48.2970695   2.2137325  85.3960953  47.0896950   2.0748949
  35.4255409  13.2082424  16.1996460  35.5482750  13.6975040  15.3861399
  34.9238281  12.4352303  15.9408617  42.0005341   2.4515870  41.4682846
  41.3629875   1.7457113  41.5755463  42.8494415   2.0093405  41.4663048
  21.3135509  46.3337402  19.1297970  20.5989914  46.9515800  18.9751568
  21.9627552  46.5456276  18.4590740  58.2458420  26.1852684  40.7504425
  57.8097153  26.9384842  40.3520851  58.0985756  25.4689732  40.1328163
  69.4092560  21.5077286  82.5801315  70.2562637  21.9207993  82.4122391
  69.5761261  20.9051208  83.3048706  55.3672333  35.8580513  32.7302666
  55.7411957  36.4373779  33.3941650  55.4596481  34.9797134  33.0993385
  59.0231743  10.3247299  15.5612135  59.3427544   9.4416342  15.7462578
  59.6053543  10.8992186  16.0584679  29.2198410  37.5177345  66.5998917
  29.2242508  37.1110535  65.7333908  28.7989864  36.8707161  67.1660004
  25.3499985  14.8541889  88.1459045  25.0057011  15.6350670  88.5793991
  26.2790070  14.8423595  88.3761978  40.4920082  45.2115250  80.1510468
  40.5669746  46.0608406  79.7159958  41.3942795  44.9679031  80.3579025
  65.4389877  70.8275681  14.8339901  64.5062027  70.8304291  15.0487833
  65.6941223  71.7497025  14.8623466  17.9473171  56.7270164  77.3187943
  18.4713917  57.1674461  76.6497650  17.1125393  57.1953888  77.3158951
  46.1102524  60.5215378  63.2338219  47.0446968  60.5126495  63.0265312
  45.7519417  59.7730827  62.7566833  30.2371826  62.8271408  61.8951187
  30.5721703  63.2426834  62.6896858  30.5732803  63.3692284  61.1813889
  37.5388107  32.0322647  25.2835312  37.5504684  32.9363289  25.5977993
  36.6114655  31.7954750  25.2696037  33.2639046  40.8149529  34.1816063
  33.2753143  41.7620583  34.3197899  33.1871567  40.4454689  35.0612793
  47.8536835   0.7599985  44.2463608  48.3973198   1.2811092  44.8372345
  48.2755241  -0.0990346  44.2278481  77.1965179  34.4847946  50.2096786
  78.1336746  34.2956352  50.1627960  76.8169785  33.7125092  50.6289101
  74.9833221  51.0152054  53.0313530  75.6982803  50.5958252  53.5100975
  75.3364868  51.1623077  52.1539307  83.0042572  45.8085785  55.0576706
  82.0512314  45.7932510  54.9697342  83.1567612  45.8760681  56.0002327
  84.0333252  18.6056194  55.5444717  84.3044128  19.3605289  56.0668297
  84.5489960  18.6728077  54.7408562  19.0267391  19.7327290  13.4439325
  19.1401901  20.6740837  13.5751209  18.4970512  19.4491768  14.1890917
  37.5848770  16.2933350  80.3866119  37.2880936  16.6523476  81.2228317
  37.2685699  15.3899078  80.3880539  36.4781494  34.6938171  31.6902637
  36.9851952  33.9189377  31.9325390  36.6528625  35.3228722  32.3902626
  58.2552528  15.6535559   4.4590998  58.3110123  15.0694551   3.7028270
  59.1596794  15.9212151   4.6222043  52.1561852  50.6295090   4.5751839
  52.8454590  50.1491890   5.0339084  51.4310646  50.0076790   4.5138540
  15.0382566  14.6057501  17.0465755  15.2306347  15.1628294  17.8008194
  14.9923153  13.7206297  17.4080753  17.2705002  28.8861656   9.2138052
  16.5806580  28.5756378   9.8002539  18.0335083  28.3536263   9.4384241
   0.8841584  42.2465591  80.6658936   1.6046891  41.6662064  80.9113693
   1.1543810  43.1096725  80.9793472  78.0465622  35.0672913  10.6349955
  78.4951248  35.5422096  11.3346176  78.6333847  35.1392632   9.8822041
  44.2444916   0.4473216  75.7335739  43.4896049  -0.1402916  75.7665787
  44.8724556   0.0651887  76.3466492  47.0533447  71.3482437   5.1002083
  46.9319916  71.9853363   4.3962083  46.3075943  70.7540131   5.0166621
  33.9389496  39.4069328  29.4497948  34.5207939  40.1649895  29.5049057
  33.1963120  39.6338196  30.0094776  66.8184967   6.7486196  86.7207108
  66.9156113   7.4521403  86.0789490  66.9819336   5.9469543  86.2238693
  24.8268681  64.5726242  69.3399200  24.1080360  64.5066986  68.7112961
  24.5277576  65.2196121  69.9788055  33.4730110  32.1679039  66.9438553
  32.8354568  32.8394585  66.7014236  34.0265694  32.0722656  66.1688309
  65.2419815  16.3904591   7.4418964  65.2092514  15.7175245   6.7619553
  64.3714905  16.7882710   7.4272604  45.0428467  67.3160172  77.0451584
  45.8928947  67.7332382  76.9052353  44.4174118  68.0406265  77.0446930
  46.7603378   5.2045660  39.1979637  46.6315498   5.4882598  38.2928848
  47.5481720   5.6668420  39.4840622  32.4140472  34.5661049  11.1433458
  33.1307335  35.1981773  11.1988144  32.4115906  34.2865105  10.2278938
  44.7829742  65.0198059  75.6715012  44.5063362  65.7340851  76.2455292
  45.7210655  65.1629410  75.5460892  29.2507553  22.6888466  17.4758644
  28.9022274  21.8013058  17.5597286  30.1418743  22.6297722  17.8203220
  34.5020065  66.1557922  86.6191025  34.8622818  65.4221497  86.1208954
  35.1734657  66.3549500  87.2715683  24.4202900  49.5532608  69.6148376
  24.1820183  50.4800034  69.6395264  25.2500439  49.5319176  69.1380920
  10.9809752  43.6897774  17.3868484  11.2528973  42.8599663  17.7789021
  10.3069744  44.0246353  17.9783096  39.6449509  56.1930122  84.2180710
  39.4679527  56.0828819  85.1522980  39.8367577  57.1255417  84.1189423
   6.9790916  40.8842735  43.7397194   7.2241106  41.5585480  44.3734016
   6.4393506  41.3444557  43.0969582  33.4170723  42.8125458  71.6143494
  33.1595001  41.8982620  71.7325821  32.6283760  43.2427864  71.2840805
  77.9281921  65.9320908  48.1160545  77.0337601  66.2654495  48.0446320
  77.9556580  65.1889267  47.5134087  56.4705467  62.9513054  87.5425644
  56.3907928  62.9292412  88.4961777  57.3717384  63.2322922  87.3840256
  20.5711441   6.1823907  26.3883228  21.1096115   6.2618957  25.6009445
  19.8475418   6.7926779  26.2462616   9.3992414  56.3516960   6.2895017
  10.1880379  56.3029747   5.7494478   9.6802874  56.0463448   7.1520581
   2.1453066  35.8961334  15.3782740   2.2814064  35.9809418  16.3219452
   1.3661065  35.3461380  15.2971344  51.8917542  51.3268356  15.3675604
  52.2617073  51.7377930  16.1488934  52.4989853  51.5584373  14.6648054
  42.9481049   1.9862083  48.5654602  42.3684807   2.5845666  48.0940437
  42.8921700   1.1645435  48.0776405   1.1771958  61.0491142   2.0685074
   0.4998719  61.6580048   1.7740269   0.8256193  60.1826172   1.8640462
  62.0487633  48.7362709  24.6305542  62.9121475  48.3272438  24.5714073
  61.5676765  48.1912422  25.2532330  11.9051933   4.8139796  79.9916763
  11.5204067   3.9401722  79.9236221  12.2244654   5.0044518  79.1096268
  65.7426834  13.7590055   2.5743730  66.5735397  13.7093105   2.1016738
  65.1205673  13.2942076   2.0147598  66.6916962   5.0876884  59.5382652
  66.9921570   4.9207249  58.6449127  66.0477219   5.7899756  59.4470520
   9.7961521  32.0722466  85.6237717  10.2143736  31.9284286  86.4726791
   9.0736599  32.6715126  85.8111725  11.4207821  22.2224636   8.8135843
  11.7066107  21.3184814   8.9453049  11.8572941  22.7153378   9.5083971
  80.3020172  41.0006218  44.7258797  80.5783844  41.8627586  45.0366364
  79.7749710  41.1839790  43.9481621  28.6825733   1.9117110  25.2236996
  29.2431297   1.1800886  24.9653645  27.8130398   1.6719946  24.9032631
   1.2861660  13.1429100  28.9727058   1.7325162  13.9876270  28.9139156
   1.9857948  12.5141563  29.1499634  38.6160278  63.7958107  67.5871201
  39.2125015  64.0524445  68.2903900  39.1852913  63.6499443  66.8315430
  81.3261871  65.8933563  85.0404358  81.7006912  65.2289505  85.6188278
  82.0846863  66.3089294  84.6303101   4.2701902  55.3232269  80.7304916
   3.7414658  55.2861290  81.5275497   5.1278696  54.9916687  80.9963608
  38.3001251  45.3254547  71.8049088  39.1080170  45.3251686  71.2915421
  37.6163673  45.0959854  71.1755905  74.6007996  68.2465057  53.6100845
  74.1561813  67.8416061  54.3548012  75.3345795  67.6612854  53.4221497
  28.7381916  53.5185242  14.3287296  29.2479591  53.1297722  13.6179247
  28.7022686  54.4509850  14.1155233  48.4006004  46.8035088  86.8402481
  47.6370430  47.0691719  86.3277664  48.8674545  47.6205406  87.0155640
  40.1580544   9.8558769  72.2173691  40.0402679  10.7962351  72.3518448
  40.8056755   9.5993071  72.8738632   4.2955971  32.2552223  88.3583221
   4.3285913  32.2052803  89.3136444   3.3665109  32.3655663  88.1561966
  72.6411438  37.5023346  46.8011742  72.6557236  36.7055511  46.2709312
  73.5313263  37.8484650  46.7378922   8.0316610  70.9412308   9.0071869
   7.2664514  70.7167435   8.4777613   7.9538269  71.8840637   9.1529398
   1.0510098  28.8147640   9.5902796   0.9522459  28.4579506  10.4729805
   0.1540823  28.9236889   9.2742281  26.9833794  54.0468521  86.9977875
  26.4393959  53.6075859  87.6515198  27.6169796  53.3821526  86.7276917
   4.5235820  28.0372047  28.2944393   3.8542891  28.4975491  28.8007622
   5.0921669  27.6401711  28.9542160  42.5633202  57.0693932  53.8767166
  42.6407700  56.6591187  54.7380600  43.4359970  57.4203568  53.6992569
  23.5230656  60.7784538  70.6705780  24.1352711  61.0403824  69.9829483
  24.0800419  60.5713959  71.4209976  51.2839661  37.1549263  26.6337357
  51.3607407  38.0055199  26.2014980  51.6027603  36.5271187  25.9853096
  47.1374130   5.6614084  65.3112488  47.0987930   6.3751383  64.6745911
  48.0469170   5.6555190  65.6095734  48.1169624  40.2140732  78.4612961
  47.6714287  39.4236336  78.1564407  48.3248062  40.6957512  77.6606598
  55.3252068  43.6610680  87.3810577  54.9320450  42.7913055  87.3091507
  56.1398201  43.5166245  87.8624878  54.7875977  50.3050461  47.3607559
  54.6787949  49.5587959  46.7712631  55.0816231  51.0176392  46.7933159
   5.9579821  47.1031036  66.9141693   6.4722157  46.8910942  66.1351624
   6.4665012  46.7447891  67.6416702  31.7256355  57.7739639   8.0576668
  31.5246487  57.6669807   8.9873924  31.7106552  58.7206192   7.9167690
  57.9658928  11.7877321   1.8779973  58.5015755  11.3971663   1.1875373
  58.3051720  12.6780834   1.9696257  52.0308533  25.8769417  48.4311218
  52.9580078  25.7438068  48.2339096  52.0029831  25.9991837  49.3800735
  27.9068108  55.7313271  64.7857742  28.4444733  55.2349243  64.1687393
  27.9135361  55.2059326  65.5858688  63.2034836  61.6096077  30.5435810
  62.2839699  61.8746109  30.5211811  63.5988808  62.0530052  29.7930527
  50.7676888   4.5282397  20.0151215  50.2790680   3.9639134  19.4159412
  51.3102684   5.0715451  19.4435806   6.6261101  65.2081299   3.7245846
   7.1485767  65.2829208   4.5231247   6.3375974  64.2955399   3.7117293
  39.1515770  27.0447998  23.5215321  38.4609642  26.8192215  24.1447506
  38.7483673  27.6895981  22.9402466  14.8354034   6.7860575  17.5663471
  14.2068129   6.3600116  16.9836025  15.2511826   6.0647359  18.0386333
  74.1218109  33.5937500   1.3648577  73.9716568  32.7068443   1.6920931
  75.0605698  33.7374573   1.4844971  28.8515835  64.5667191  59.4156723
  28.7428875  65.2584152  58.7630005  29.7794571  64.3364105  59.3683281
   2.6133416  11.6588821  56.2593040   2.7528980  12.3698750  56.8848000
   1.7839106  11.2633934  56.5273819  70.4759064  16.8084526  60.8078232
  70.3023758  16.8277092  61.7489662  69.6090393  16.8457870  60.4036255
  39.2663078  37.7880859  11.4747028  38.5146637  38.2184181  11.8822260
  39.3361740  36.9479866  11.9281149  82.9961166  38.4058952  63.4546280
  82.5651093  39.2599792  63.4229126  82.7736511  38.0572548  64.3178711
  75.6665421  17.2323837  46.3070335  75.8063202  18.1731987  46.1995010
  76.2142334  16.9927711  47.0545921  72.1643982   3.7385571  14.3139200
  73.0528641   3.6317413  14.6536980  72.2486877   4.3993025  13.6265030
   5.1937299   7.6212564  44.9270287   5.1880531   7.8764658  44.0044937
   4.2712145   7.4865818  45.1439590  20.5373249  39.2778702  77.2589951
  20.3268661  39.6023407  78.1345901  19.8682423  39.6634903  76.6934357
  61.1812973   0.2879558  44.2550659  60.6729202   0.8836079  44.8055077
  61.1146851   0.6591996  43.3753090  12.6520386  41.2925072  74.5825653
  13.3732252  40.7744217  74.2252045  12.6422529  42.0882759  74.0506973
  35.5740051  64.4603729  53.2191124  35.2168732  65.3479004  53.1877441
  35.0246124  63.9596786  52.6160355   8.8068256  69.8510666  74.7299500
   8.4402285  69.8070526  75.6130676   8.2881174  69.2257233  74.2238541
  67.5009308  31.1877403  85.6339874  68.2925339  31.6390877  85.9270325
  67.7946548  30.6346779  84.9100494  39.5525513  50.9609261   4.1078448
  39.9048996  50.7205620   3.2509279  40.2634201  50.7724991   4.7205372
  37.0472641  42.5245361  37.2621536  36.7986412  41.7316208  36.7870674
  37.6031723  43.0063171  36.6497116  62.6919327  25.8873577  65.1888046
  63.4181213  25.5601654  64.6579285  62.1947212  25.1038036  65.4234390
  10.2758207  21.3311691  84.5950394  11.1206398  21.5593853  84.9828949
  10.2093420  20.3828373  84.7067566  60.3718529  44.0363426  36.6780205
  61.2217064  44.2255325  36.2802887  60.5673866  43.8928299  37.6039810
  56.3507004  -0.0478579  66.8588943  55.7191620   0.6710227  66.8343887
  57.2018242   0.3835252  66.9345779  46.8676643  40.0679779   6.6460524
  47.6656837  40.3280716   6.1858954  46.4714584  40.8938255   6.9239540
  82.0898819   8.4605331   4.3076940  81.3023071   8.5853643   3.7781954
  82.6649323   9.1830578   4.0556798  85.9642334  12.6908569  84.0999527
  86.8339615  12.7475843  84.4956665  85.4268875  12.2583780  84.7636185
  15.5563869  51.1191063  31.1477795  15.1905069  51.6126404  31.8817997
  15.2895336  51.6113701  30.3714447  14.5114937  39.6113701  87.8722229
  14.4746857  39.7606964  86.9274597  13.9407005  40.2841339  88.2434540
  11.6063890  51.1853180  29.1622505  12.0481815  50.3430099  29.0546761
  12.0604486  51.7728081  28.5581665  50.3203697  61.9459419  74.6439209
  49.7046890  62.5693398  74.2585068  50.6381073  62.3811073  75.4350586
  42.2188797  50.9030991  10.7352972  41.7797318  50.8820572   9.8850412
  41.5140648  50.7839699  11.3719120  67.9501114  21.4669914  33.0355263
  67.1839828  21.6518784  33.5787468  68.5558319  22.1838570  33.2237778
  40.9081268  67.4036255  76.9116135  41.0255814  66.6760330  77.5223923
  40.0407791  67.7519608  77.1180191   6.5243182  37.9350128  87.9395218
   6.5050621  37.1106758  87.4533844   5.6095066  38.0997391  88.1680374
   0.2314201  65.3583374  37.3088341   0.4240680  64.6278229  36.7210693
   0.4701409  66.1382370  36.8078232  35.1876297   3.4339354  38.8765297
  34.2419434   3.4769781  39.0181389  35.5669212   3.6048450  39.7385979
  46.0030174  60.7105446   4.6515965  45.3450317  60.0793266   4.9428902
  45.9773788  60.6595345   3.6961007  61.1859474  15.3153524  10.3439665
  60.6672020  15.4955063   9.5599518  60.5766068  14.8788052  10.9392481
  -0.2159299  18.9232521  24.0861168   0.6761774  19.1521912  24.3468151
  -0.4506863  18.1895924  24.6543293  50.4602089   0.3917577  83.2958298
  50.6105728   1.0758060  82.6433716  50.6266098  -0.4264368  82.8277512
  59.2785835  28.1077709  15.2998056  58.4238548  28.0496655  15.7267694
  59.8277740  28.5789623  15.9263830  84.6007233   6.5603614  71.1137543
  84.7024231   7.3381786  70.5652161  84.0577011   5.9690299  70.5925217
  65.6250610  50.4369507  18.0302658  64.8175735  50.1261559  18.4396687
  65.7477646  49.8613777  17.2753544  61.0768356  11.2282286  66.7234268
  61.0662270  12.1183891  67.0751877  60.6249390  11.2976093  65.8824692
  71.4029617   3.5437799  81.6917114  70.8185654   2.8351507  81.9610825
  71.2272568   3.6571388  80.7576294  59.6140709  35.0498352  71.4908371
  59.2105789  34.1996918  71.3156662  58.9294281  35.5538101  71.9307327
  14.7411337  65.6175003  54.7467918  15.3393621  65.9636688  55.4090004
  13.9659519  66.1755676  54.8091393  81.5561905  47.4160767  24.3250465
  81.4586029  46.9841156  23.4764500  82.3137589  46.9893303  24.7253132
  78.7393951  58.5019302  24.2520370  78.7652893  57.5498199  24.1569061
  77.9273987  58.7639847  23.8181877  19.2878361  11.1547985  48.5484009
  19.8404274  10.7391806  47.8864822  19.3197727  10.5580387  49.2961235
   1.8084676   7.0840802   2.5863848   1.8307859   7.0319037   3.5419009
   2.0348835   7.9933214   2.3908122  78.6543503  56.1141701  82.2442780
  78.0291977  55.4212151  82.4569473  79.4980164  55.6658363  82.1854248
  65.8285751  59.4513359  13.1552277  65.1774216  59.4783401  13.8563013
  66.6701279  59.4280930  13.6107330  36.0405922  18.6089001  59.5362396
  36.5895042  18.7698727  60.3037109  35.1874008  18.3692589  59.8979988
  47.4965515   7.3131661  72.4236069  48.2984085   7.8358464  72.4156723
  46.9055023   7.7901278  73.0061951  82.4917984  18.9744282  84.7258072
  83.4376526  19.0508156  84.8513489  82.1738815  18.5771999  85.5365906
  41.5200310  61.3177376  84.9462051  41.0819092  62.0882187  85.3076477
  41.9000435  61.6227646  84.1223297  56.7385750  18.7054138  57.6189194
  56.1396484  19.3124943  57.1842117  56.2697525  17.8709240  57.6268501
  16.2291794  40.6268311  53.4361610  16.7205410  40.0721703  52.8302345
  15.5049791  40.0753059  53.7321091  71.7050018  63.0035591  68.5051041
  72.1532516  62.2526054  68.1160355  72.1763306  63.1669273  69.3220444
  64.8468933  53.7095795  53.9718819  65.0268707  54.1851044  54.7828789
  65.4302521  54.1081085  53.3260574  69.5910721  56.1899261  41.2894592
  68.9095383  56.3790054  40.6444855  70.3182068  55.8406601  40.7741699
  69.3747253  27.6618004  21.7908611  69.5480576  28.2262611  21.0374889
  69.1019897  26.8280830  21.4077663  63.8765182  35.4443321  43.2585526
  64.1866226  34.6840134  42.7666283  64.2820511  35.3533821  44.1208153
  76.2780685  63.6781311  53.4184914  76.9754105  63.2573929  52.9155769
  75.5334015  63.7068634  52.8177567  44.4332428  27.6311932  59.5677376
  44.9042244  28.2300034  60.1472511  44.7542038  26.7623081  59.8090935
  75.6096497  30.9988880  65.8428268  74.8872757  31.5477371  65.5375748
  76.2079697  31.6087322  66.2744904  82.6907806  62.6316032  39.9417305
  82.8502960  63.5734863  40.0021210  82.1306534  62.4349136  40.6925964
  62.7827225  61.9172630  41.9390526  62.8741493  61.5049324  41.0800667
  63.0850945  62.8157730  41.8068275  63.5932655  49.3772049  12.1298752
  63.1600304  49.4709969  12.9782505  63.7784462  50.2751694  11.8549271
  73.8313675  64.3895950   4.4890032  73.3106995  64.9076920   5.1027727
  74.0671921  65.0057144   3.7954512  25.6768837  16.2700081  74.8499222
  25.7497997  17.1723175  74.5388641  25.9938145  15.7385569  74.1196136
  53.6336441  43.6538353  82.0163651  53.7423553  43.0695076  81.2660446
  53.3127937  44.4724197  81.6379395  70.5636139  53.1162415  14.7310371
  69.7120667  53.4533348  15.0093594  70.7022552  52.3392296  15.2725773
  22.7673130  31.8547096   2.6115210  22.0677891  31.8989296   3.2633967
  22.3101559  31.8305836   1.7708918   9.8135843  28.3598957   8.0821972
   8.9223185  28.5861244   8.3480883  10.3728809  28.9307652   8.6090031
  61.7010918  65.6403351  68.4405823  61.7278900  65.1635895  69.2701721
  60.8376122  65.4420776  68.0781860  53.7220993  58.0950127  46.5420265
  54.5457306  57.8415565  46.9587135  53.2566833  58.5925369  47.2144012
  51.9432869  27.6725407  74.2705231  51.3140373  27.0452328  73.9144897
  51.4350052  28.1963997  74.8897629  16.9646778   1.0744652  61.3199730
  17.8121834   1.1727587  60.8860321  17.1832085   0.8952215  62.2344933
  70.5201187  53.6708527  62.3250732  70.3245773  53.3523750  63.2063026
  71.4581604  53.5142860  62.2164726  71.2751160   7.3445320  43.5276566
  71.6202011   7.7804494  44.3068390  72.0453873   7.1822629  42.9830704
  82.6675415  39.9900208  32.8813744  82.7107468  40.0462875  33.8359451
  83.2653503  39.2771797  32.6561699  43.7294617  71.3041382  65.5123901
  44.4900665  71.8409882  65.2899017  44.0923157  70.5657654  66.0016479
  51.8496323  30.7816505  69.6431274  52.5751038  31.3781395  69.8278427
  51.8663979  30.1533432  70.3650513   7.3143520  56.0076065  86.0177841
   7.6113935  56.1119423  85.1138458   6.9377556  55.1280594  86.0461349
  30.0313320  46.0099525  82.6370544  30.8203468  46.2324638  82.1429062
  29.5837059  45.3610725  82.0940857  69.7066345  13.1590376  73.0556946
  69.4209671  12.9268885  73.9392853  70.0421906  12.3406916  72.6897049
  60.7210121  47.5200577  76.3089142  60.8786964  48.2291374  76.9322739
  59.8571014  47.1818008  76.5444336  85.7766953  69.8511124  76.7762604
  85.2605667  70.6067123  76.4953461  85.9172821  69.3459930  75.9754333
  75.0607147  56.8312759  85.4077148  74.6259384  57.5774269  84.9948502
  74.3468857  56.2393074  85.6448898  79.2229996   1.1678497  10.2860880
  79.5813751   1.9920251  10.6155272  78.3794098   1.4093698   9.9036512
  30.7157440  55.7977333  41.3751869  31.6646271  55.6860046  41.3171387
  30.4399090  55.1633492  42.0367813  22.4837246  58.7613144  49.8442116
  22.1805534  58.1338577  50.5004272  23.4379539  58.7417374  49.9169769
   7.1793294  61.3580170  55.6754456   7.7866602  61.9892387  56.0613708
   7.6492596  61.0044060  54.9202232  50.3745308  65.8945999  36.0329361
  50.6078644  66.3268738  36.8544769  49.4174652  65.8786240  36.0341034
  58.8714256  15.3267746  47.2967148  59.1321220  15.6641321  46.4397087
  57.9210091  15.4383297  47.3190269  38.9905777  58.3198853  26.8819656
  38.3785744  59.0199699  27.1090508  38.7380028  57.5887375  27.4457550
  80.1067734  57.7434273  15.3395500  80.2951736  57.9121552  16.2627335
  79.3104324  58.2440453  15.1622286  18.5107632   9.4871044  68.7015457
  18.2563457  10.1378021  69.3558350  19.4625034   9.4252338  68.7827606
   2.5461113  48.1469002  31.3950253   2.0183909  48.8608131  31.7528915
   3.0795043  48.5603218  30.7161999  41.9580460   3.2781632  46.0435181
  41.0391388   3.2221091  46.3056107  42.0786781   2.5486150  45.4356995
  21.9843769   1.3579863   5.1323800  21.8816547   1.7620364   5.9940200
  21.0999699   1.3461108   4.7664361  74.9085464  54.9433556   2.8571432
  74.3217545  55.3836250   3.4720254  75.4321442  55.6494789   2.4783692
  46.3418350  32.5051575  42.3553925  46.0874367  31.5872097  42.4496460
  47.2938309  32.5013046  42.4550018  56.7113495  70.7169342  78.4914398
  56.1887398  70.4717407  77.7279053  56.8481216  71.6594391  78.3954315
  75.1483688  38.3724251  46.6978645  75.1531448  39.2666245  46.3563766
  75.9216461  38.3266373  47.2601585  69.6841507  44.4341354  52.4462433
  68.8435059  44.8211479  52.6907158  69.7373657  43.6305428  52.9635811
  37.0568581  71.7556458  81.3563690  36.2143135  71.4802246  81.7176132
  37.0121460  71.5120926  80.4317551  78.4161530  53.2745171  71.7219696
  79.3726730  53.2631760  71.7561874  78.1420364  53.0633659  72.6144485
  33.4780807   7.6958165  83.0585175  33.1863213   6.8119636  83.2819290
  32.6684570   8.1893063  82.9273453  75.7108994  69.3484344  77.1830673
  75.9398270  69.9255981  77.9115677  76.5359726  69.2116318  76.7174759
  45.1809196  65.0540848  13.3640156  45.8719711  64.5523300  13.7963676
  45.6121445  65.4542923  12.6089563  49.7858810  12.8692598  16.1415234
  49.9806252  12.5309982  15.2675180  49.9383354  13.8117561  16.0730343
  57.3110390  39.3060226   5.2071018  58.0312729  39.5444374   4.6234436
  56.7685699  38.7123299   4.6879821  76.7863312  47.7336273  62.6805344
  77.4796524  47.7990913  63.3372345  76.5801544  46.7996788  62.6422005
  59.3377800   9.7518492  52.8585701  59.3410301   9.5970039  51.9139824
  59.8676567  10.5406342  52.9738007  53.9103165   2.8658018  30.4502144
  53.0119247   2.8531911  30.7803078  54.2874107   2.0388095  30.7504025
  46.4662285  34.7022629   6.6766319  46.3066559  34.0135422   7.3219485
  45.8660240  34.5013847   5.9585576  71.1847229  60.5865517  82.7199631
  71.0058975  59.7398911  82.3107986  72.1365509  60.6776733  82.6757355
  22.9739285  17.7846279  77.6237869  22.7314739  17.8694000  78.5458832
  22.1888542  18.0493355  77.1443939  43.5197029  35.2933731  19.3284874
  42.6138878  35.3109856  19.0195942  43.8533859  34.4426308  19.0436649
  58.3064919  48.3675156  42.0277443  58.4857941  47.8128433  41.2685204
  58.5537987  49.2479019  41.7449265  37.8122063  60.0374069   5.4217229
  38.0290070  60.9683685   5.4721289  37.0300980  59.9438324   5.9655819
  74.4394302  50.6658287   8.8592758  73.7795868  51.1700439   8.3832417
  73.9467850  49.9570580   9.2730141  82.2530060  35.7420578  40.0402718
  81.4421997  35.4642296  39.6140823  82.1068573  36.6631622  40.2557831
  51.5567856  63.0486641   6.2525587  51.9673996  63.0558395   7.1171846
  52.1078110  63.6231155   5.7209511  10.2211981  48.5873184  80.3103638
   9.7267952  48.5679665  79.4909592  10.0790520  49.4689026  80.6550903
  57.9516678  36.0934181   7.2936244  58.7481194  36.4506111   7.6864443
  57.6214981  36.7991905   6.7376537  62.4482574  37.9433479  66.1113663
  62.4049835  37.9826050  65.1559525  63.3587036  37.7165337  66.3007736
  29.7548218  12.5402699  77.8126831  29.1389847  13.0188694  77.2577744
  29.9764996  11.7590170  77.3059921  33.3520317  50.8144569  15.3852739
  33.8015366  51.5276108  15.8386879  32.4506149  50.8583412  15.7042637
  27.5464401  59.1468086   6.3367510  26.7404938  58.6358376   6.4115319
  27.2690964  59.9758949   5.9469776  53.6257973  11.4056835  29.1407242
  52.8549538  11.6247339  28.6172256  54.0378876  12.2497425  29.3250523
  69.9162216  13.5115662  49.9849892  69.4670181  12.6969271  49.7595711
  69.8877945  14.0310001  49.1814880  56.7079582   5.7434082  86.7734299
  56.1625290   4.9919548  86.5409317  56.5430374   6.3826523  86.0803223
  26.7216682  45.4599380  82.8123016  26.2112961  45.9876213  83.4265442
  26.6905155  45.9510422  81.9912796   3.9251995  25.8518295   1.5173216
   4.2495751  24.9992352   1.2273282   4.5260372  26.1118031   2.2156339
  34.0195122  60.6411209  28.9166183  33.7643280  61.3858604  28.3721180
  34.5043411  60.0663605  28.3243198  18.6633301  49.7087402  74.4438171
  18.1317158  50.4161263  74.0788269  18.0747776  49.2527351  75.0454025
  69.6237106  31.0230122  66.7720337  70.2195053  30.9942970  67.5206604
  70.0432816  30.4726372  66.1107635  70.1348724  25.1991692  73.5695114
  69.2853317  25.0012646  73.1753769  70.0164185  26.0579720  73.9752960
  59.0090790   9.3763285  39.5026398  59.8723183   9.7206345  39.2734947
  58.4557114  10.1529617  39.5854301   3.6548636  21.4854584  68.4614563
   4.5650873  21.2594604  68.2700119   3.4872715  21.0974102  69.3202667
  44.5941734   5.3434944  18.9844170  44.5476112   5.6486325  18.0783520
  44.1595154   6.0296535  19.4908638  52.6003494  44.3321304  46.0726891
  52.4741287  44.3295059  45.1238518  53.4843864  44.6779060  46.1957588
  69.7938690  51.3930168  52.5061302  70.4695969  51.3719101  51.8285103
  70.2543259  51.6800194  53.2946968  72.4390869  23.1885929   5.0909514
  71.9028702  23.9609795   5.2701735  72.0529861  22.4985561   5.6304021
  77.0848389  66.0124969  63.6405144  76.7617950  66.7888031  63.1831131
  77.5563278  65.5182724  62.9699364  37.9713173  12.7421341  68.0241699
  37.6583214  13.6460629  67.9898453  38.7375374  12.7755642  68.5969009
  75.7924728  10.9435787  -0.1157062  75.2543030  11.2080507   0.6303939
  75.4635544  10.0765190  -0.3528850  29.7570572  26.3171883  77.4016113
  30.4008427  25.6602783  77.1365891  29.7674026  26.2903271  78.3583832
  37.6693802  49.2093506  33.8101921  37.5470619  49.3693466  34.7459679
  37.5695724  50.0707397  33.4048767  74.4499741  40.8724403  31.9457664
  74.0836716  40.6096382  32.7901535  75.3961105  40.7769318  32.0549736
  86.8023987  24.9105263  37.8751450  86.1240845  24.2364826  37.8328972
  86.3893661  25.6370544  38.3418274  73.0851974  69.4103088  76.4792786
  73.9644241  69.1517944  76.7556152  73.1614532  70.3434067  76.2799149
  36.0880318  69.0071945  66.0728912  36.8233223  68.7274933  66.6181946
  36.3798332  68.8449936  65.1757965  74.8645554  13.1362247   1.7308422
  75.6942291  13.5635719   1.5181179  74.4563065  13.7135172   2.3760540
  37.4300346  36.7541008  78.5866547  37.5080147  36.5678444  77.6510010
  37.4923935  37.7073517  78.6471252  34.8218269  70.5139771  11.2209797
  34.2767906  69.7987747  11.5490894  34.2954407  71.3007584  11.3628426
  11.7870073  49.5633011  41.8170090  11.9697809  50.4968071  41.7102814
  12.6509533  49.1545906  41.8697777  17.7109661  63.1070900  83.7004013
  17.0183620  62.6823730  84.2065048  18.4540138  63.1522064  84.3021240
  58.1642609  55.7370033  29.8243809  58.2303696  54.8580360  30.1975803
  57.5763092  55.6357956  29.0758495  46.9135704  14.4335709  67.0403214
  46.6777115  14.1178179  67.9126205  46.4965286  15.2927189  66.9757233
  55.8249741  53.8257637  35.8812294  56.5479736  54.4039040  36.1246490
  55.4072380  54.2638283  35.1397247  25.3654995  55.4364014  11.1387825
  26.0939045  55.3474083  11.7533865  25.5546570  54.7998390  10.4494066
  15.1353407  27.7663002  52.7824364  15.9145613  27.4323616  52.3379898
  14.4656229  27.1010227  52.6239586  32.6645622  66.9451065  17.9924965
  31.8391972  67.0916595  17.5304050  33.1384201  66.3199463  17.4439812
  79.5671310  34.5648270  67.3045044  79.8261871  34.0573578  68.0736542
  78.9866333  35.2432098  67.6495361  79.7087402  49.4097672  56.1989670
  79.9362564  48.5619087  55.8173828  80.2113113  50.0447273  55.6885986
  51.8068810  43.0955048  86.9015350  51.8246384  42.6650810  86.0467529
  51.4578857  43.9687080  86.7227936  84.9972534  17.4868279  61.9424057
  84.6500702  17.3540192  61.0603294  84.4311752  16.9580784  62.5047340
  69.1831284  69.0738754  67.2408829  68.2316818  68.9697037  67.2300568
  69.5196686  68.2331543  66.9307785  68.2893524  22.8748207  11.9966993
  67.7556686  22.1688118  11.6320543  68.5467834  22.5578136  12.8624163
  48.4323540  16.0131645  36.3208809  47.5664444  15.8274250  35.9576530
  49.0438232  15.6529102  35.6785812  38.6940117  19.7219009   8.7394981
  38.4972496  20.0470238   9.6180267  39.5764809  19.3580475   8.8108368
  32.9996147  64.1317291  28.4216366  32.1762123  64.1601257  27.9343643
  33.6255875  63.7415352  27.8116074  31.6979485  65.5845337  52.7801132
  31.4194031  64.9484253  52.1213188  32.1146240  66.2839127  52.2766380
  67.0776672   2.0862756  42.8261948  66.1871033   2.3200006  43.0879364
  67.0392075   2.0279176  41.8715515  81.5966415  42.4935913  79.7861862
  82.4128113  42.4607887  79.2871628  81.7613754  41.9424477  80.5512543
  70.4628525  11.4781561  77.2249756  70.1906052  11.7034378  78.1145554
  71.2816772  11.9569902  77.0965958  25.8372154  54.5118752  56.0069618
  26.6697540  54.4679108  56.4772568  26.0780773  54.4232712  55.0848083
  26.5217628  47.0017967  80.3405228  25.9659138  47.6538963  79.9138794
  27.3312187  47.0059509  79.8296432  84.8562622  44.3028603  82.7098389
  84.8137360  44.4308624  81.7621918  85.6694946  44.7334480  82.9734344
  41.3325462  59.6461525  49.4344139  41.4206619  60.0442848  50.3004189
  41.5821152  58.7313156  49.5648689  21.5584717  24.8644657  45.0815163
  21.3903942  23.9329758  44.9390106  22.3755245  24.8869495  45.5796661
  74.5709076  57.8849182  66.0951920  73.8536530  57.2827339  66.2930527
  74.2781906  58.3584213  65.3165131  54.8026543  16.4178562  18.4197617
  55.3484039  15.8880835  17.8386173  55.2764702  17.2451763  18.5050316
  38.9605598  60.0173836  47.9620323  39.2634468  59.3456535  47.3510704
  39.7614746  60.3555374  48.3625488  77.3765488  33.3209076  38.2121277
  77.2876968  32.4565697  37.8105583  77.8626633  33.8355141  37.5678406
  27.4525528  47.4404907  36.1061172  27.8975182  48.1836243  35.6986961
  27.8428020  47.3762054  36.9777832  19.8017197  42.3394356  29.2548771
  19.3442726  41.9030151  29.9735641  19.6197376  41.7946014  28.4891949
  14.9979601  70.7342834   3.4116001  15.9026604  70.7514801   3.7237737
  14.6428719  71.5879898   3.6592259  70.6478119  28.6250191  41.1342926
  71.0707245  29.4615955  40.9405823  70.8245010  28.0835247  40.3650093
  68.0246353  41.4762039  20.3233051  68.7642441  42.0825729  20.2842808
  68.1131973  41.0447845  21.1731663  59.1452522  14.5491104  51.3211594
  58.7340698  15.3459024  50.9860764  58.6684380  14.3546534  52.1280479
  33.0558929  51.7863350  66.4267426  32.5219879  52.5106888  66.1004105
  32.8696213  51.7552872  67.3651276  81.2938766   0.7329806  81.7976227
  82.2083282   0.8559600  82.0523529  81.3127060   0.7104273  80.8408737
  50.1802368  33.8031235  72.5705109  49.5354042  33.6760368  71.8746185
  50.7800331  34.4635086  72.2235718  77.8435364  32.4380531   6.6910787
  78.6308060  32.6006088   7.2107091  77.4918976  31.6185760   7.0389876
  48.3341331  25.2761517  56.4013519  48.3328247  25.7514915  55.5705185
  47.4098396  25.2110710  56.6415138  45.6144676   6.9762206  81.7773209
  46.4594307   6.9021683  82.2209244  45.0770187   6.2879591  82.1693268
  44.6051407  69.8125458  23.8694363  44.1384773  69.7676086  24.7039642
  45.3266754  70.4204407  24.0309315  21.3702068  68.0846481   0.1223017
  21.5475998  68.7145538   0.8208576  22.1311703  68.1466446  -0.4550391
  47.0595932   5.9092269  67.8745193  46.8568764   5.7967553  66.9458237
  47.2775955   6.8372121  67.9614105  58.4686813   5.0222912  33.8618851
  58.5773621   5.3771353  32.9795570  58.1373062   4.1349239  33.7240334
  83.1285858  59.4561729  40.8773155  83.5056763  60.3193932  41.0472717
  82.2336731  59.5156822  41.2117157  42.1224289  31.7746658  15.9356441
  42.4590454  30.8874016  15.8104019  41.8349648  31.7951508  16.8484287
  50.6911926  25.9480476  42.6609764  51.3083992  26.6456509  42.8815231
  50.6615334  25.9481201  41.7042389  81.7678833  10.4510326  27.8853130
  81.1954803   9.7222986  28.1251678  82.5814209  10.0334949  27.6023827
  57.2901497  21.6593513   4.3947506  56.3370934  21.6740093   4.3069992
  57.5622330  22.5566368   4.2021875  12.0210085  68.6167297  13.4696484
  12.0458822  69.0654373  14.3147974  12.0991955  67.6882935  13.6890087
   8.2203941  26.7730312  14.4609079   7.6698518  26.0290623  14.7051306
   7.9193048  27.0166473  13.5855637  71.0881195  66.3406677  83.1796265
  70.4418106  66.8919678  83.6207428  70.6379318  66.0234756  82.3967209
  45.9914093  47.3520775  85.7850342  45.4667931  46.6787758  86.2182465
  45.8350601  47.2133865  84.8509293  14.7962437  30.2163715  18.7053661
  14.6684608  29.5731239  19.4026012  13.9544735  30.2471981  18.2507191
  71.6176758  69.1132278   4.4871273  72.1166534  69.8640213   4.1653328
  71.6027603  69.2251740   5.4376407  47.4913864  49.3221207  60.0208511
  48.3607407  48.9228439  60.0529671  46.9964752  48.8738899  60.7066956
  55.8123894  18.3514843   1.7012783  55.3219452  18.4547672   0.8857853
  56.4233093  19.0883446   1.7083217  18.9478340  66.8498459  34.5463715
  19.3985462  67.2746201  33.8165359  19.6515961  66.4838486  35.0820961
  21.3838692   9.1578484  12.5139866  20.4815941   9.4483776  12.6471195
  21.8954391   9.6707783  13.1396313  71.5642242   4.0388637  47.4476242
  71.5462875   3.1093066  47.2199554  70.6736832   4.2307029  47.7415085
  57.1508598  33.5551796  41.5785370  57.1370430  32.6522369  41.8959198
  57.6695251  33.5186577  40.7748680  65.1217575  36.4839935  21.8447037
  65.9932938  36.0902100  21.8846207  64.7560043  36.1727600  21.0167027
   2.0035701  14.3337507  68.5750732   2.8803101  14.5642614  68.2677841
   2.1560683  13.7563219  69.3231049   8.7429514  41.0149765  11.2242231
   8.4594193  41.3723488  10.3827200   9.0616264  41.7745132  11.7118530
  30.9911938  70.2315674  47.2162437  30.5634880  70.8271942  47.8314934
  31.0198746  70.7181854  46.3924637  33.4298744  57.5024948  52.0424767
  33.4215889  57.3409500  51.0990410  33.9737473  58.2832031  52.1470261
  19.1346512  51.6912231  46.1407928  19.4566212  51.7907829  45.2448807
  18.3280048  51.1838913  46.0504189  15.6511059   0.5860169  56.9318962
  15.0455904   0.3011574  56.2474709  16.1050625  -0.2135620  57.1980324
  47.0180817  39.1562691  65.7588120  47.7807846  38.6578293  66.0522079
  46.8906670  38.8859825  64.8494492  32.4795837  46.2417908  41.5433159
  32.8255119  46.7521286  42.2755165  32.4346771  46.8642731  40.8175545
   4.6146040  66.1295547  31.9965496   4.9148245  66.0436172  32.9013786
   5.0547929  66.9150162  31.6717205  17.2147293  59.0926247  33.0139771
  17.6892776  59.8942451  32.7938919  16.9826660  59.1973381  33.9366989
  64.4646149  48.7900696  85.5856934  64.5185471  48.0358505  84.9987717
  64.4105835  48.4083710  86.4618378  67.3797531  16.2411766  43.5318794
  67.5181580  16.9298725  42.8816681  67.9913101  16.4516048  44.2375336
  73.1198196   5.6022491   3.9801221  72.2649536   5.9120340   4.2792425
  73.6812744   6.3766470   4.0162683  70.7201004  50.5487938   7.9750690
  70.5068207  49.6204185   8.0692482  70.1180573  50.8657455   7.3017807
  60.6387520  56.2528915  39.3652229  60.2502098  57.1177444  39.2336998
  60.1783028  55.8964844  40.1249542  17.1826763  52.3773155  15.9790411
  17.2663708  51.5355377  16.4269695  17.7481804  52.9696159  16.4746418
  16.7214203  64.8898697  77.7976761  17.3589001  65.2334061  78.4236450
  17.0432377  64.0139847  77.5843811  39.2313728   3.8744724  73.1094437
  39.2477188   4.7544227  72.7330704  39.3992195   4.0097089  74.0420532
  51.7933884  19.8300209   1.7631474  51.2921181  20.6389713   1.6603923
  51.1370316  19.1671562   1.9777158  25.5335808  26.6645164  84.5898361
  24.9673786  26.3587589  85.2984695  25.7289219  25.8767014  84.0824661
   8.9914093  33.6600494  32.6471939   8.0952559  33.7321243  32.3186417
   9.3470192  32.8887100  32.2058182  33.9818001  64.9469452  16.4681320
  33.9922714  64.1938858  17.0589104  34.7973061  64.8737564  15.9723225
  16.6483059  56.4370575   7.2918501  16.1246109  56.0869293   6.5711646
  16.1420040  56.2314873   8.0777454  64.3187103  20.4248047  21.1346092
  65.2386627  20.3088150  20.8969860  63.8590012  20.4725018  20.2963829
  45.1279678  62.0703278  83.9915390  44.4948807  62.0359459  83.2744293
  45.9607277  62.2749443  83.5662460  13.8779144  12.6253271  23.5556946
  14.6200676  12.4466438  24.1331997  13.8828974  11.9021978  22.9285660
  60.2364922  17.0277309  40.5280380  59.4075890  17.3619804  40.8707199
  60.0378876  16.1332607  40.2510757  78.1159515   6.2260666  27.2645054
  78.0041199   7.1689067  27.3860741  77.3248291   5.8405323  27.6409664
   0.4923971  69.3094635  85.6974258   1.3261673  69.5381393  86.1082306
   0.6280708  68.4255676  85.3560181  11.1801214  63.3495560  16.3577366
  10.2926683  63.0009689  16.4422722  11.5802774  63.1960640  17.2136250
  31.6102371   6.6973767   2.7789822  30.6808949   6.7034678   3.0081561
  31.9960270   7.3825259   3.3248460  38.0813828  70.8080597   1.2993748
  37.5465355  70.2592697   1.8729587  37.6356392  70.7755356   0.4529191
  57.3367310  39.4821930  54.1726875  57.4904480  40.2709160  53.6525726
  56.4697495  39.1811600  53.9007454   5.0871749  55.6512032  66.7595978
   4.6919708  56.2150536  66.0946808   4.8201661  56.0398026  67.5926285
  67.8376617  63.6925545  13.5642633  67.3589478  63.0859756  12.9993534
  68.3183899  64.2559052  12.9578199  19.5988579  59.6352234   3.5292914
  19.7446632  58.7981224   3.9700098  18.9741688  59.4335213   2.8326492
  42.9759636  62.3307495   2.4225132  43.5554237  61.7603493   1.9174381
  42.4050865  62.7325974   1.7676487  41.5639648  46.7808952  11.1319857
  42.1960716  47.3461075  10.6879015  41.4988976  47.1425056  12.0158615
   6.8459172  20.3923302  83.0338593   7.3468070  19.7324734  83.5133667
   6.7419553  20.0234566  82.1567307  64.6821213  62.1820869  38.0655785
  64.9484940  63.0998383  38.0106812  64.8308563  61.8364639  37.1854324
  83.3926468  63.9187317  79.3321686  83.3625565  63.6767960  78.4065399
  84.2727051  64.2733612  79.4585495  22.8306808  58.1260681  69.4394379
  22.8688049  57.9065361  68.5085373  23.2291546  58.9944611  69.4972458
  37.0668831  36.2305260   8.9129763  37.0290833  35.9667435   9.8323355
  37.9461746  35.9814491   8.6282959  31.5280762   8.3657322   8.3492069
  31.4541607   7.4866133   8.7205801  30.6948624   8.5066481   7.8996167
   5.2635727   3.0493240  77.3844070   5.7055688   3.8856025  77.5310745
   5.4024444   2.8646877  76.4555054  67.0887451  56.1451035  18.6659298
  68.0136566  55.8988113  18.6551418  67.0591660  56.9849281  18.2076168
  63.3997307  11.2941189  32.4249077  63.0088158  12.1612415  32.5322113
  64.1965332  11.4516163  31.9184132  53.3069153  36.5760727  73.9860840
  53.0107117  35.6878052  74.1847763  53.3440056  37.0122185  74.8373413
  76.5163193  66.1422348  89.2720871  76.0304718  65.7016983  88.5748596
  77.4180374  65.8400040  89.1635208  72.9266281  53.5970001  10.1349850
  73.8408203  53.7643013   9.9058609  72.5471268  54.4672661  10.2568398
   7.3424554  62.4189987  38.9193077   6.6993809  62.0922813  38.2900658
   7.9442945  62.9468346  38.3945160  86.0234985  52.0600357  26.5136299
  85.1721878  52.4973488  26.4974060  86.4346008  52.3053284  25.6847420
  11.4496698  71.7372589  78.0539093  10.8120766  71.0542297  78.2616959
  11.6167059  71.6320419  77.1172867  46.8807640  68.2417755  23.7110748
  47.4476280  68.1396866  22.9465656  46.0936394  68.6668854  23.3705559
  35.0767059  18.7547607  74.1478348  35.4256020  18.9324913  75.0212860
  35.8387642  18.4831867  73.6362152   1.4546959  27.8889313   6.5660424
   1.5932041  28.4065247   7.3592291   0.9595998  28.4674072   5.9859757
  65.5247498  67.1080093  67.0886459  64.8340988  66.4815445  67.3049164
  65.6219482  67.0389328  66.1389008  71.1733704  39.8840179  64.2456894
  70.3589478  39.9106483  64.7479248  70.8902740  39.8499374  63.3319435
  23.4880962   4.0399871  17.0434628  23.1095028   3.3345647  17.5681324
  24.3705750   3.7347884  16.8329430  60.4809685  38.1387329  38.2203674
  61.2368355  38.7250023  38.1859169  60.8335228  37.3125763  38.5511246
  45.2919540  64.3267059  22.3041248  45.4771996  64.7509842  23.1419201
  44.9683495  65.0326462  21.7445221  43.2223244  65.4491272   9.6283016
  43.7280731  66.0430298  10.1830339  43.4391365  64.5751801   9.9530087
  40.3159943  27.3152008  68.5057373  39.7594681  27.9543839  68.0608139
  39.7174721  26.6132698  68.7612686  18.2942944  58.4877243   1.3553102
  19.0258846  58.3816643   0.7472334  17.7993298  57.6719818   1.2791151
  55.7098999  56.7501411   2.2362034  56.3568954  57.2293205   2.7539096
  54.8663635  57.0122643   2.6049435  33.6214790  55.8427582  27.9591370
  32.8481598  55.3895378  27.6232777  33.3117065  56.2961502  28.7431717
  17.9663372  49.7092857  16.9098263  18.8756409  49.9980850  16.8323917
  17.9585323  48.8353424  16.5194550  51.2229652  57.7437401  38.3960190
  51.1037064  56.9422722  37.8864479  50.3515015  58.1382942  38.4293137
  50.4815826   4.6684403  50.7668304  50.3379326   5.5156918  50.3452148
  51.4213600   4.6470299  50.9473763  49.9150963  44.9548912  73.4429398
  49.7519341  45.2314644  72.5412140  49.6607246  44.0322723  73.4602356
  85.1919861  53.9443130  39.9461823  85.0979919  53.0052185  39.7865143
  84.8859329  54.3564377  39.1382751  86.4429245  32.4187660   0.6469314
  86.7255478  31.5057278   0.6990426  85.5810013  32.3794098   0.2324784
  16.2461720  53.3968887  53.7121620  16.9182549  53.0214462  54.2810059
  16.6696167  53.4695663  52.8568001  33.8368111  32.6349030  17.5602970
  33.5415955  33.4208450  17.1005344  34.1958733  32.9608421  18.3855648
  68.6783218  60.3072891  53.1109123  69.0091248  59.4369240  52.8889503
  69.3719254  60.9053154  52.8325195  16.2975502  37.1027184  80.0167465
  16.2769585  36.8794518  79.0861740  17.1964149  37.3918419  80.1738510
   6.1477971  54.7947502  43.0085754   6.3620548  55.7257805  43.0677872
   6.7250409  54.4592857  42.3226547  53.5532646  15.6017685  56.1114311
  53.4879341  14.6558285  55.9804306  52.7818794  15.9584036  55.6709671
   6.0844073   8.5208426  71.7771072   5.7505121   8.9990568  71.0181198
   5.4760742   8.7378893  72.4835434  25.0871906  53.4189568  27.9808731
  24.8690929  52.6437759  27.4634190  24.2425880  53.8311996  28.1623478
  70.6385727  21.8908310  35.2788353  70.0899277  21.4626541  34.6216583
  71.5344925  21.7433109  34.9758492  43.7132759  57.0065117  14.8474369
  43.5857010  57.3270798  15.7402925  42.8751869  57.1663628  14.4135199
  16.4462528  24.0493488  74.4806900  16.2315617  23.3196640  75.0618057
  17.3869362  24.1810207  74.5990372  49.8122902  41.1294708  17.7124062
  49.4244843  40.5381432  18.3575191  49.0804367  41.6672096  17.4099846
  29.5166950  62.1591911  22.9443760  28.7138538  62.2474632  23.4580746
  29.2135754  62.0515900  22.0428371  18.9220200  40.1629181   8.1428204
  19.4276428  39.3501816   8.1487427  18.2899513  40.0569611   8.8538027
  35.8555908  30.6783447  69.3480606  35.7911491  31.4585915  68.7973404
  34.9632339  30.3335304  69.3802490  83.4703445  25.8665676  83.4534073
  84.3736954  25.5874119  83.6025696  82.9392548  25.2100830  83.9041901
   2.2389321  63.9232597  54.3215523   1.4411309  63.7656136  53.8166847
   2.8502326  63.2514992  54.0194283  85.7597656   8.7817383  44.6160355
  86.3556213   8.3156023  45.2024689  84.9937973   8.9746380  45.1567039
  33.2568512  38.4818459  26.2366581  32.9559326  39.3529816  26.4951057
  33.6552277  38.6116142  25.3760242  22.4540806  62.8183136  29.6908550
  21.9872761  62.7878799  30.5259590  23.3432922  62.5345650  29.9030361
  25.3808002  56.6171532  71.7734070  25.5589657  56.9750214  72.6431351
  26.0027370  57.0634727  71.1987534  68.5033722  64.7632828  37.3440399
  68.4375763  65.6013184  36.8862267  68.3748016  64.9836197  38.2666206
   0.2652719  53.0918999  18.9327106  -0.1108662  53.9396400  19.1695385
   1.0203133  53.3092079  18.3859730  20.2524109   1.0653534  17.6475697
  20.1089840   1.9589319  17.3358364  21.1760578   1.0443755  17.8979073
   2.8610916  34.6133575  51.3906517   3.1544347  35.4567146  51.0457954
   2.0600767  34.8174820  51.8732872  24.0670109  69.2931900  50.9988556
  24.4235954  69.9483795  51.5986938  24.7866554  69.1023941  50.3972397
  84.2619476  10.2149553  63.6575394  83.9775238   9.3914595  64.0540085
  85.1767426  10.0631189  63.4201813  73.6093216  61.4011955  52.9680214
  73.7432251  62.0407906  52.2685776  73.9099274  61.8462830  53.7603416
  86.1941452  71.2447968   1.9679252  85.7351151  71.7735825   2.6205416
  85.5625916  71.1415176   1.2560958  70.1606750   8.1658516  71.2511368
  70.5779724   7.3072629  71.1809769  69.2445450   7.9714437  71.4489746
   7.1290812  40.5677986  78.3263168   7.2939792  40.6672363  77.3886871
   7.9411688  40.8545685  78.7440643  48.7881737  28.4405308  64.9760437
  49.5171432  27.8865643  64.6968307  48.2202911  27.8547745  65.4766693
  12.3223057   1.5409921  88.1548080  13.2317343   1.3896652  87.8973770
  12.2585402   2.4900031  88.2622528  62.7598953  59.6770325  66.8644943
  62.1332741  60.1328583  67.4264603  63.4275970  60.3341599  66.6680450
  55.5712242  17.0798283  62.2502251  55.7426834  17.7969322  62.8606300
  55.5976486  16.2918167  62.7929688  76.9902191  58.4778481   2.1035666
  76.8226318  59.3274384   1.6957194  76.3154526  57.9021454   1.7437172
  15.9803267  57.6471748  45.8819504  15.2671566  57.2021828  46.3397751
  16.4258060  58.1499786  46.5638390  45.4256248  66.4586029   4.1520834
  45.4919548  66.6051788   3.2085011  44.8317680  65.7127609   4.2374463
  76.2726898  55.3290062  15.0527992  76.4677582  54.6875458  15.7359629
  76.1193466  54.8035049  14.2675810  67.1365280  69.8055649  85.8898621
  66.8540115  70.6693878  86.1902466  67.0041046  69.8264313  84.9420929
  20.8023891  30.3559017  85.9349976  21.0449944  29.4488411  86.1210480
  19.9551659  30.4703560  86.3655167   2.2851651  20.4808559  70.6599350
   1.7794149  19.6840820  70.4999313   3.0608611  20.1810417  71.1338959
  86.4208984  69.0494080  58.9461861  86.6489944  69.7134323  58.2955856
  86.4471970  69.5144348  59.7824173  69.7725372  37.9314499   7.6771073
  69.9396820  37.8348694   8.6146393  70.6091385  38.2211876   7.3132668
  26.1201706  63.1934090  81.7334747  25.6671867  62.3615379  81.5955200
  26.3682785  63.1806030  82.6578674  80.3812637  26.5020905  59.0783730
  80.2732544  25.5877151  59.3400726  81.3152847  26.6759090  59.1951332
  33.2605896  53.0314751  19.0922852  32.7959251  52.1961060  19.0424652
  33.3442879  53.3136787  18.1814690  66.2746277  18.4046249   5.4730973
  67.0293655  18.3862362   6.0615401  66.3088074  17.5657101   5.0134392
  16.1689930  51.1263542  56.9160919  16.5320969  50.2432175  56.9828720
  15.5998535  51.2098007  57.6811714  48.0040665  20.6268253  43.7285805
  48.3563042  21.5061989  43.5912514  47.1196518  20.7728081  44.0643387
  51.1298141  19.1774216  31.9567680  51.2986336  19.4060211  32.8708115
  50.3276405  18.6559086  31.9845333  45.9792023  28.1947021  76.9729919
  45.4768219  28.2369995  77.7866592  46.1515617  29.1094933  76.7500916
  33.0080795  22.0589142   3.5342789  32.9194145  21.6678810   2.6651056
  33.3172112  22.9490643   3.3660412  76.3135681  40.9215775  36.1401520
  77.0923004  41.1254349  36.6580887  76.4791031  40.0447464  35.7937431
  44.5779839  15.7408438  19.0807171  45.1721611  15.0790167  19.4345055
  43.8630714  15.2372942  18.6913929  17.2558613  39.7982254  40.7147713
  16.3956871  39.9240150  41.1154099  17.5217686  38.9205475  40.9890060
  64.3187408  37.9114380  29.8667336  64.4557648  38.8535461  29.7673092
  63.9026413  37.6421890  29.0478325  43.9521294  52.8878326  85.5757370
  44.5466919  53.0014343  86.3172379  44.3157539  53.4471245  84.8892975
  61.9627457  51.2068672   9.1646662  62.4544754  51.3630333   8.3584118
  61.8320541  50.2588654   9.1856890  11.8040352  40.9435425  18.2244606
  12.3377714  40.9086037  19.0182724  10.9244995  41.1564827  18.5363979
   0.4833922   7.0956125  85.3320847   1.1091664   7.2398019  84.6222610
  -0.0669345   6.3757157  85.0236664  50.9884186  71.6037140  15.9056931
  51.5047455  71.8152008  16.6834526  51.2608414  70.7165375  15.6713057
  55.6029663  23.2828197  73.2185440  55.1821136  23.3232555  74.0773087
  56.3280258  23.9049397  73.2776108  43.4274902  15.8227215  79.3703079
  43.0883522  15.6182680  78.4988632  43.1045570  15.1130486  79.9255600
  76.9657593  42.5373497  32.6547089  76.6067581  42.7689056  33.5112915
  77.8038940  42.9978752  32.6138420   1.5081505   1.8889683  30.9785347
   2.0551322   1.5804329  30.2561436   0.8243502   1.2243747  31.0619869
  51.4358521   0.1772678  35.9676399  52.0686836   0.7164609  35.4932632
  50.6400299   0.2196518  35.4374504  64.4016876  25.2432213  22.3435478
  63.9319115  25.6246815  23.0851879  64.9659424  24.5763340  22.7348461
  48.0197067  53.2716446  10.4216480  48.9168701  53.4611168  10.6962986
  47.8595047  52.3784981  10.7263680  46.7473755  67.0959778  17.1586971
  46.3362961  67.6657944  16.5086555  47.6868858  67.2338181  17.0380764
  10.5788183  65.8994675   4.7065406  11.4312363  66.1109772   5.0871711
  10.0366945  66.6661758   4.8922520  54.8839989  46.9149094  14.4670124
  54.9510460  46.4520264  15.3021612  55.7457886  46.8083763  14.0642691
  52.9813309   9.5631504  33.9607620  52.9756088   8.6479101  34.2410011
  53.5229530   9.5686102  33.1715546  62.2778969  65.8417740  65.0591354
  62.0923462  66.1804962  64.1833115  61.8247643  66.4436035  65.6496506
  59.0192451  28.7076244  82.5895157  59.0291252  27.8786678  82.1110153
  59.8867645  29.0824089  82.4372711  24.7388687  67.2229462  74.9380875
  25.6505814  67.4017944  74.7078171  24.2729130  68.0286713  74.7146378
  11.9476175  27.7579880  85.1736298  12.0424204  27.2138958  85.9554214
  12.0605850  28.6541691  85.4903793  48.4839172  20.5097923  72.9436493
  48.2293739  21.1267681  73.6297836  49.3336029  20.8279610  72.6386337
  72.4509048  62.9770317   7.9897823  72.7466583  62.2983131   8.5964937
  71.7439651  63.4233932   8.4558659  79.4339218  56.9114265  72.2624359
  79.0226593  57.2039452  71.4490967  80.3166428  57.2802391  72.2306137
  54.9186707  42.5134735  47.5266380  54.1035728  42.9061279  47.2141190
  54.8091545  42.4578094  48.4759254  35.6911392  45.0455627  55.9790726
  35.3952255  45.4182587  55.1485519  35.3388405  44.1555557  55.9812546
  15.1591263  57.8903770  83.4727936  14.8197012  58.2850189  84.2760849
  15.3824387  58.6358833  82.9154968  48.3020630  47.7538910  10.9979801
  47.3651390  47.6404724  10.8381643  48.7211494  47.0974655  10.4414682
  74.8263092  14.5543346  49.2791290  75.5139389  14.4248085  49.9322853
  74.0622253  14.1079397  49.6440125  29.6358471  24.5893898  73.9725113
  29.7092609  25.2336884  73.2684402  30.5285492  24.2667980  74.0960159
  35.6877022  49.6823540  45.1362953  35.2201385  50.5058670  44.9968605
  35.1173515  49.1784286  45.7168045   7.7230692  48.3629646  52.7979927
   7.5893230  49.2756958  53.0534554   7.6998081  48.3761787  51.8411674
  20.6757431  47.3643456  74.4501801  19.9435520  47.8765068  74.1069336
  21.3363590  48.0168839  74.6825790  80.8845978  13.4625854  35.2689018
  81.7836456  13.4732428  35.5972824  80.5449295  14.3340454  35.4724121
  82.7121201  69.9158707  67.3825684  83.4316101  70.1015625  66.7791672
  82.9572678  69.0905304  67.8008347  40.9169159  58.4340363  65.3244553
  41.6668510  59.0099602  65.4732666  40.6739120  58.5882721  64.4115448
   1.6106088  10.1906815  62.6225662   1.5766124  10.1575909  61.6665421
   1.3431681  11.0834312  62.8409805  44.4084778   4.0258141  30.8104382
  44.8740044   3.8791082  31.6338425  43.5374336   3.6577470  30.9588909
  15.9656172  16.0455627  13.6841335  16.5628033  16.5871391  13.1680937
  15.2704554  16.6457653  13.9538336  -0.0295741  38.7074165  58.4362831
   0.8434181  38.9551430  58.1317368  -0.6007689  38.8727150  57.6861877
  64.4972534  60.2532578  59.9515572  64.7925873  60.7897949  59.2159348
  63.5517921  60.3978958  59.9891281  82.9009857  35.8374825  17.8967400
  82.4089966  35.1335411  17.4740791  82.6768875  36.6211357  17.3948479
  37.1636696   6.6584764  69.9374084  36.2749062   6.9850521  69.7971344
  37.0989342   6.1186752  70.7252274  15.3869677  14.9634037  48.1428452
  14.7588615  15.6178865  47.8372841  16.0740166  14.9613104  47.4763680
  77.7487564  25.3486404  37.7549400  78.1800156  26.1893883  37.9078827
  77.7129440  24.9372368  38.6184769  25.0939579  32.8786697  70.2000275
  24.7751007  33.4621239  69.5114517  26.0351028  32.8104210  70.0393372
  53.0886078  15.3270321  34.6237564  53.6589050  15.1751480  35.3773613
  53.6806259  15.6180563  33.9301758  60.7993164  41.0167427  62.1036949
  59.9429474  41.1105156  62.5209160  60.6971931  41.4374962  61.2500191
  28.3009644  46.7831383  77.7436066  29.0789299  46.3104362  77.4477081
  28.5033264  47.7041321  77.5791321   9.4415846  63.8823738  87.5476303
  10.1403437  63.9445343  88.1988602   9.0842743  63.0018921  87.6630249
  77.0867538  57.5521469  59.2780037  77.9892349  57.8423653  59.4104118
  77.0016022  56.7750092  59.8303032  17.8956547  69.3869019  27.8305511
  18.4941025  69.4458313  28.5752811  17.0234776  69.3728256  28.2246838
  85.0234985  37.1242714  15.4138260  85.9391937  36.8598900  15.3252859
  84.5831757  36.3494072  15.7630091  36.9404449  15.3521461  66.3998718
  37.1682587  16.2817192  66.3848953  36.2999725  15.2738733  67.1069107
  48.0546837  47.6142578  38.0699959  47.1411896  47.3782349  37.9085808
  48.5501556  46.8305359  37.8322678  61.5693436  44.0215988  18.0890961
  62.3643074  44.4829788  18.3562908  61.8507462  43.1162643  17.9571171
  16.9876251  36.1640549  23.9359341  17.0223560  35.2077217  23.9573479
  16.5559330  36.4064484  24.7551517  75.9343948   2.8154898  28.5470085
  76.6101151   2.2032504  28.2558022  75.1102753   2.4046981  28.2856522
  17.1117039  20.3636951  30.9977131  16.3861370  20.9845505  31.0634460
  17.0110874  19.9685287  30.1317158  81.2728348  18.0140705  80.4426575
  81.0143356  17.9478912  81.3619156  80.6756821  17.4239712  79.9828568
   1.9825761  42.7665634  16.3789730   1.2008551  42.6118889  16.9092751
   2.1694138  43.6982994  16.4938297  37.3434296  67.5478134  35.0243454
  36.7809792  67.2055664  35.7191467  37.2705307  68.4989166  35.1038704
  34.5468979  45.6112480  85.9514389  34.6303024  46.1738510  85.1815338
  33.8580704  44.9884071  85.7194672  -0.0957436  42.6721458  32.5603027
  -0.2177183  42.0311966  31.8599205   0.8243920  42.5833168  32.8086815
  32.2818565  29.0175819  79.0050201  32.6396942  28.1939106  78.6737366
  31.8387508  29.4066715  78.2510300  61.4357605  10.9946547  41.8268776
  61.7486801  10.1064548  41.9983864  61.8571320  11.2423019  41.0038643
  54.3706284  58.9286079  18.3547897  53.6021614  58.4738617  18.0099754
  54.7560730  59.3597565  17.5920467  58.7295380  30.4135189  25.3339920
  59.3967209  30.4483223  26.0194759  57.8986588  30.3983479  25.8090096
  44.8522148  17.7351341  44.6186371  45.3019524  18.5621624  44.7918205
  43.9701118  17.9935474  44.3515205  32.4019318  41.4411087  60.8759918
  32.1145020  41.9965324  61.6006470  31.5938110  41.0642357  60.5279427
  18.2305794  56.5869751  67.7011566  18.3965702  56.5270119  68.6419449
  17.3302689  56.2791443  67.5966949   5.6989384  62.6546402   3.6453564
   5.0652008  62.2006454   3.0899298   6.3355165  61.9804153   3.8828871
   5.5784483  14.6854534  64.0915375   6.1612811  14.8393345  64.8350830
   5.1028457  15.5093403  63.9855042  37.4555893  62.8078613  28.1476536
  37.8802452  63.3582191  28.8056831  38.1638412  62.5505295  27.5574055
  54.9322891  21.2885895  17.3505745  53.9959373  21.4604645  17.4502544
  54.9846535  20.6549740  16.6350174  36.0951958  69.3563919  60.8535118
  36.9660454  69.4116287  61.2469635  36.2534256  69.0356674  59.9656296
  29.3969078   3.2995143  77.3268814  29.8047504   3.9661922  77.8795471
  29.6927052   2.4678187  77.6970444  40.4821854  42.0711632  66.6106262
  41.2809906  41.6217422  66.3346481  40.6923828  42.4239349  67.4752655
   6.9320416  13.7516537  24.4783134   6.9215779  14.0451012  25.3893623
   6.0121770  13.7591457  24.2136898  38.6645927  14.6710320  88.1403656
  39.2656212  14.5459814  87.4059601  38.2173004  13.8295040  88.2297745
  27.0160885  35.7338142  32.2620049  26.1671505  35.6145744  31.8361931
  26.8269863  36.2811852  33.0241432  39.5772095  60.5586090  12.6668224
  39.8366089  59.8155327  13.2116022  38.8816452  60.9888954  13.1640902
  85.4823303  34.4973221  79.6894684  85.9865417  34.2065659  78.9295578
  85.2701645  35.4114113  79.5006409  36.3332672  18.3710060   5.2577081
  35.4108582  18.4251270   5.0077825  36.6320648  17.5384350   4.8919487
  49.7745285   9.0794916  43.1736412  50.1496277   8.4051762  42.6072197
  49.3004150   8.5906897  43.8463364  61.5692062   2.4536660  60.4457169
  62.3961525   2.8832762  60.6644058  61.0137749   3.1585975  60.1128502
  35.1454239  52.7671432   0.1287145  35.3022270  51.9281960  -0.3046558
  34.1921387  52.8337288   0.1839142  64.4746475   1.6035689   4.2916017
  64.3082809   2.4492836   3.8752818  63.9449234   0.9823111   3.7919347
   8.6566277  56.5571709  11.9997549   9.4449701  56.1784554  12.3887568
   7.9379067  56.2072639  12.5262880  52.7682228  68.4852219  66.8159485
  53.4968452  67.8668594  66.8704224  52.0238953  67.9540100  66.5330734
   4.8468518  50.8582840  43.5336494   3.9971020  51.1423836  43.1968346
   5.0868468  51.5281715  44.1738777  65.7894287  69.8769684  24.4957085
  65.4362259  69.2579269  23.8567486  66.6704483  70.0733948  24.1772003
   9.2532492  63.2610512  21.3217201   9.9196997  62.5787697  21.2406883
   9.4613113  63.8831024  20.6245880   7.1935287  37.7716599  25.4576225
   7.2277517  36.9515076  24.9652710   7.3764563  38.4494400  24.8069439
  84.5996704   5.8964391  51.3638191  84.7126541   6.1319895  50.4429588
  83.7657700   5.4272561  51.3904572   9.0327597   1.3002038  85.0427246
   9.3747454   2.1894574  84.9505005   9.2981548   0.8567654  84.2370224
  62.8397560  48.5529366   7.1340895  63.5115891  47.8732300   7.1876526
  62.2510147  48.3659286   7.8652840  28.1061459  45.6028061  34.2684517
  27.7696857  46.3018150  34.8291779  27.3500366  45.3261490  33.7507744
  79.7868195  21.6825752  76.6416092  79.6567764  22.3717995  75.9902344
  78.9221573  21.5559349  77.0321960  53.2554092  41.6218338  62.8737602
  54.1572762  41.3666420  62.6794777  53.1695290  41.4971542  63.8189125
  65.0953369  48.1973305   3.8852758  64.7148132  47.7234116   3.1457930
  64.5205612  48.9530449   4.0067544  63.3301506  47.4635429  87.8810272
  62.4021378  47.3483391  88.0853729  63.7418404  46.6489830  88.1695328
  39.6839142  41.8045082  -0.0352068  39.4788704  41.5278740   0.8579118
  39.6858025  40.9929962  -0.5428274  63.8774948  46.4896736  21.5802441
  64.4979019  45.8598747  21.2132626  63.4786987  46.9060669  20.8161716
  20.4582977  71.0311737  74.2632828  20.6524696  71.2880554  75.1646881
  21.1692543  71.4115067  73.7474136  30.8138504  14.9815569  12.4108925
  30.1338558  15.0840559  11.7450600  31.6281796  15.1984510  11.9569550
  58.7346725  14.8043652   1.9684047  59.2100487  15.1237707   1.2014426
  57.8128281  14.8490763   1.7145700  55.0266647  21.5798874  76.0371552
  54.4824677  22.3381138  75.8246231  55.7683754  21.9450912  76.5195694
  40.3563690  54.7787514  30.2750034  40.8043098  55.0599861  31.0728054
  39.4519691  54.6265411  30.5490894  51.3030319  17.1419258  23.5265083
  51.0681458  16.4971695  24.1938515  50.8355675  17.9360065  23.7856331
  73.3488693  13.5826321  14.0644026  72.9107666  13.6065598  13.2136812
  74.2746124  13.7161264  13.8609104  61.2860527  35.2387199  25.5545406
  61.5473518  35.0402908  24.6553288  60.3384590  35.1037560  25.5639229
  82.2867584  20.4471264  48.5527802  83.0863190  20.0420856  48.8887482
  82.4373093  20.5292110  47.6110649  24.5099792  54.3084183   3.0677881
  24.3208809  53.4951859   2.5996795  25.4367962  54.4741478   2.8952298
  45.7177315  40.2915001  12.9360952  45.7274170  40.2764130  11.9790630
  45.4253922  39.4151077  13.1865053  72.6356506  47.5140495  87.6016083
  71.8366013  47.3772926  88.1105804  73.0559158  46.6543198  87.5799637
   6.8567710  69.9700012  32.9545822   6.1881618  69.3640594  33.2740021
   7.5905995  69.8571014  33.5587196  19.1749172  68.5779877  25.5589600
  19.6105137  67.8496552  26.0016956  18.5561562  68.9161758  26.2062607
  83.4460068   2.9412513   0.6293347  84.3407974   2.9244442   0.2897931
  83.1228485   3.8150654   0.4096731  84.3048401  16.4358654  69.6753235
  84.6464539  17.1926422  70.1515808  84.6667709  15.6792526  70.1365967
  50.9407425  38.1969261  73.3364182  51.5426788  37.4532928  73.3061829
  50.2275467  37.9048424  73.9041061  19.1473503   5.8907743  72.7904205
  19.4830856   5.6413512  71.9294281  19.4400349   5.1905127  73.3736877
  67.2527161  54.2993469  14.0451412  67.1918335  54.1590805  13.1002331
  66.6735687  53.6376724  14.4233055  70.7762604  20.6261063  37.5776634
  70.7622833  21.0474911  36.7183189  69.9569092  20.8980331  37.9911194
  33.4057922  18.3741169   8.2539072  33.5239677  19.0496521   8.9216795
  34.2357674  18.3607178   7.7772598  48.1693916  31.8075829  30.7806129
  47.3033791  31.6117821  30.4229603  48.0777359  31.6634827  31.7224541
  23.0009499  53.3339386  10.7197914  23.7160378  53.0347595  11.2813721
  23.4100552  53.4756241   9.8660994  12.0093174  55.5058250  86.4155960
  12.9664831  55.5116005  86.4213181  11.7644939  55.4684563  87.3402023
  50.4989243  26.7279320  84.6345749  50.2343445  25.8366852  84.8624039
  49.7202759  27.1137123  84.2331848   5.9256253  24.8210297  12.3149099
   5.2215953  24.2097321  12.5314474   5.5850115  25.6785622  12.5695724
  62.2278633  27.9341965  56.0636063  61.8793602  27.1573677  56.5010033
  62.0952950  28.6431408  56.6929398  35.0633774  22.7097282  88.9830856
  35.5719910  22.6477127  89.7916031  35.7029152  22.5637474  88.2860184
   2.8416886  31.9973660  19.4439564   3.5169752  32.4452705  18.9344444
   2.3193047  32.7042503  19.8229809  17.6809711  41.4348984  14.3913393
  17.8261185  41.4272041  15.3374386  18.4839516  41.8091545  14.0288706
  18.6714420  41.1493607  17.1043320  18.6620445  41.5960312  17.9508724
  18.0002785  40.4715195  17.1837177   7.6134286   6.8146758   8.8909407
   7.8305802   7.6946998   9.1985693   6.8601241   6.9416556   8.3141909
  24.0093288  21.7462769   0.5645877  24.2673149  21.8777065   1.4769483
  24.7802277  21.3574791   0.1513293  45.1384773  27.4241180  26.3292980
  45.9843750  27.8716984  26.3482819  44.5238342  28.0868912  26.0143700
  46.7401123  36.5116348  69.6428757  46.2360611  35.8664474  70.1387634
  46.2724953  36.5934486  68.8116913  56.6836548   5.8647404  75.6699753
  57.2505379   5.9895248  74.9088593  56.8639030   6.6203094  76.2293167
  77.2013321  52.2660370  73.8533173  77.1319122  52.4480362  74.7904892
  77.4286194  51.3374252  73.8058624  45.5212364  40.6998978  82.9367447
  46.2308273  40.5321388  82.3166122  44.8122978  40.1236496  82.6511230
   3.3653719  47.2742615  57.5642929   2.4143038  47.2981186  57.6697998
   3.5897117  48.1380844  57.2182884  20.6474915  44.9240456  75.4596176
  20.7511063  45.8113976  75.1159668  20.9221439  44.9878616  76.3743439
  50.6137772  12.3074951  33.5402870  51.3531990  12.4317417  32.9452667
  50.0032692  11.7554636  33.0516472  34.9709854  11.9416122  22.4449520
  34.5012054  12.0449591  23.2725124  34.5150375  12.5230780  21.8364773
  38.5566063  64.6965866  29.6787052  37.9029427  64.8218918  30.3666420
  39.2123184  64.1215820  30.0732193  47.3894501  71.8358307  54.2172203
  48.1721001  71.7519913  53.6725502  47.0873070  70.9362411  54.3424454
  66.2364807  61.0945511  80.1255264  66.0338516  61.4997864  79.2823410
  67.1394043  60.7902069  80.0341721  29.2037144  46.6082077   7.3228312
  30.0150089  46.6031036   7.8307757  28.8742828  47.5030174   7.4066429
  62.5741997  13.5411673   5.1533203  62.4368248  13.7140532   4.2219396
  61.9905090  14.1547604   5.5994606  64.0213394  55.9586411  81.4501266
  63.8199806  55.5244751  82.2790985  64.9777069  55.9828911  81.4185715
  17.5318165  57.0587997  48.8119621  17.1231861  56.2332458  48.5517311
  16.8090229  57.6857529  48.8389931  56.8725662   4.1720085   1.6858596
  57.4126396   4.8180375   1.2306703  56.3396301   4.6885657   2.2903283
  73.0805893  70.2051163  25.5140629  73.1535797  69.5345154  24.8349514
  72.5962143  70.9172592  25.0963726  56.4056053  50.4098892  33.8239250
  55.5129318  50.1491814  33.5972176  56.9631310  49.8511200  33.2824669
  23.6612129  44.7434959  84.1109924  24.3672638  45.3804474  84.2206116
  23.2262650  44.7190132  84.9633179  71.7344818  15.4287815  82.2902451
  71.0023575  16.0451126  82.2710724  71.3211670  14.5678720  82.3553619
  67.2785492  23.2071705  21.2713451  67.1145248  22.4065628  21.7696934
  66.4641876  23.3625603  20.7929020  64.2199249  52.2574043  24.3242683
  64.4863586  53.1588593  24.1436462  64.9698944  51.8722382  24.7775116
  69.9197388  11.6579247  45.7127800  69.2044449  11.0807095  45.9800148
  70.0996399  12.1907701  46.4873428  10.5009174  61.2540665  78.5690842
  10.6503725  62.1914902  78.4460754  11.0711870  61.0144310  79.2995605
  78.0604858  27.2902985  88.3942719  77.4839096  26.5632343  88.6291656
  78.1330109  27.2401810  87.4411392  75.5987320  21.7994766  22.0874863
  75.9808426  22.6737461  22.1641922  75.7876663  21.5336304  21.1875629
   2.0007861  39.7744980  46.7923241   2.4918404  38.9611588  46.9088440
   1.2200832  39.6627350  47.3347664  54.5008888  56.7725983  67.1679535
  55.4503403  56.8931999  67.1831970  54.2389603  56.8175011  68.0875244
   5.4085007  65.4515686  34.4268799   5.0682125  64.9623260  35.1759300
   5.2309318  66.3679886  34.6387062  34.0174522   9.9106455  77.9862061
  34.7267151  10.4330931  77.6117401  34.3771667   9.5707312  78.8055344
  48.3572044  60.1118507  59.3375893  47.8692322  59.5609665  58.7255096
  47.7047310  60.7199669  59.6850052  12.6793051   8.6090803  85.4139633
  12.9628067   7.7101617  85.5807114  12.1658030   8.8454571  86.1864090
  60.8084145  24.2034473  88.7222290  60.5687027  24.7254658  87.9565506
  61.3450890  23.4935780  88.3696671  14.3837271  25.6944180  16.6369610
  14.0666494  26.0668659  17.4597473  13.5934868  25.3865528  16.1931477
  55.5904884   4.6311569  19.4653358  55.8833008   4.7910023  20.3625221
  54.6988106   4.9782200  19.4389839  42.6080093  38.8696442  37.8403854
  42.9921341  39.5195084  38.4289055  41.8067017  38.5897713  38.2828903
  80.5850525  42.2091789  16.7463856  80.5670700  43.0978546  16.3911896
  79.7725372  42.1348152  17.2469139  50.5570183  46.6166191  83.9413452
  50.2592926  45.9212914  84.5279465  50.7260017  47.3611107  84.5187607
  73.7527390   4.2264032  78.4082718  74.4251938   4.6888218  77.9080734
  74.2263260   3.5240917  78.8540344   5.7800241  27.1193542  45.2430649
   5.9395022  28.0437126  45.0523834   6.0284410  27.0180149  46.1618958
  79.7702026  15.4600573  62.8966331  80.5633698  14.9600210  62.7040596
  80.0843887  16.3444118  63.0848808  72.2905197  20.6713676  27.7350540
  72.7508011  21.4523048  28.0424805  71.4621277  20.6772614  28.2146053
  64.4902115  39.4605560  40.5617561  64.7425003  38.5955849  40.2386284
  65.0220795  39.5872269  41.3474464  15.9487019  51.4713669  20.1804714
  16.2918167  52.3529434  20.3265190  15.2246370  51.5948029  19.5666924
  34.6311302  67.2324448   7.5412436  34.9993439  67.0096893   8.3962469
  34.4431190  68.1692734   7.5981479  75.1419525  47.5606651  85.1403732
  74.1890869  47.5538788  85.0496597  75.3587875  48.4752083  85.3215561
  64.7198868   0.7331674  36.3414459  64.4159088   1.6387146  36.2796936
  65.4213181   0.6712401  35.6930656  83.2085037  50.9222107  64.4441605
  83.3103638  51.5230217  65.1823273  83.9065628  50.2778969  64.5616760
  83.8456879   7.8761106  82.7440109  82.9173203   7.9474854  82.5220337
  84.1252136   8.7785511  82.8979568   3.4272699  65.9720840  43.2474861
   3.5595305  65.7730331  44.1743736   2.4794238  65.9205780  43.1243324
   8.4870892  60.7891045  47.0661774   9.4301100  60.8458977  47.2201767
   8.0935984  60.9731293  47.9191284  11.1695814  43.1544228  31.6280365
  10.9050865  42.3705330  32.1094894  11.4936304  43.7516365  32.3022461
  13.0582371  32.4983902  73.0759506  12.5891485  31.6641560  73.0604630
  13.6653538  32.4455299  72.3378143  50.6163216  16.2407608  40.9054222
  50.9134560  15.4329605  40.4866142  50.5507660  16.0189018  41.8342438
  53.8384972  56.0816536  37.7144356  53.5834885  56.0974693  38.6369057
  53.3232956  55.3693657  37.3356934  43.7488289  33.6279907  82.2453232
  43.8270569  33.7947655  81.3060150  44.4684792  33.0285759  82.4429092
  -0.3386818  18.4121532   3.4428387   0.3985027  18.9465733   3.1475661
  -0.0176151  17.5118732   3.3914225  24.9937859  60.4041519  15.6286478
  24.7967319  59.4698677  15.6958437  25.0095482  60.7114029  16.5350571
  86.8748016  51.7661705   6.9726329  86.2503510  51.3121681   7.5384731
  86.3483047  52.4172592   6.5088291  55.6571732  57.0179291  88.5864182
  55.5432663  56.0978279  88.3483582  55.3267746  57.0760536  89.4829102
  26.2902603   2.9447644  83.7509079  26.3159122   3.0000794  82.7956543
  27.2089806   2.9780848  84.0175095  79.1371841  47.6584473  64.1624680
  79.9346161  47.5696793  63.6404953  79.0677719  46.8298035  64.6365662
  63.7113113  42.8268814  51.3211174  63.2474136  42.9739494  50.4968605
  63.1627235  43.2476845  51.9830933  40.1352997  14.2384577  45.9433746
  40.3380013  14.0572348  45.0256042  40.9458542  14.6013041  46.3005524
  10.9111490   4.5072250  75.9243011  11.7352362   4.7359147  76.3542023
  10.3755016   5.2971225  75.9976196  77.2958984  20.8804035  77.9203186
  76.9376526  20.9877701  78.8014297  77.5792694  19.9667301  77.8866730
  11.7417393  38.7255669  70.2019958  10.7989025  38.7445946  70.0378952
  12.1359549  38.6931725  69.3303452   9.4964924  32.9586067  74.8896713
  10.1795778  32.5577049  75.4271698   9.0909605  32.2233620  74.4301147
   8.3290348  66.1079025  34.6256371   7.4354105  65.7721558  34.6959114
   8.5536661  65.9994507  33.7015114  38.1323051  20.9583511  80.4902496
  37.6343079  20.2427597  80.8854141  39.0483513  20.7179413  80.6291580
  33.7988815  50.3000565  37.9635391  34.3685532  49.5938263  37.6586761
  34.2514572  51.1022415  37.7029381  39.5588989   4.4470038  75.6569901
  39.2672272   5.2117829  76.1532516  39.9837723   3.8874393  76.3070755
  10.5154219  56.8815994  34.2651215  10.2970133  55.9533539  34.3480911
   9.6690855  57.3286362  34.2753944  60.9592400  43.0770416  60.2268372
  60.3603020  43.8114510  60.3615417  60.5172958  42.5223579  59.5839958
  85.7463226  24.9797592  51.9354477  85.9568710  24.0712433  51.7198105
  84.9276657  24.9253578  52.4284782  63.1291962   9.0913181  17.7473392
  63.3224144   9.6745567  17.0133553  63.9191666   8.5597200  17.8452282
  61.4500542  62.9549904  83.1540146  61.0078964  62.1783218  83.4968185
  62.2487373  62.6167717  82.7491150  52.7974510   0.8017922  25.3051853
  52.2316055   1.5613762  25.4433346  52.8929405   0.7440056  24.3545151
  62.3033981  51.0207329  32.8783112  62.3465652  50.3768692  32.1713409
  61.5001945  51.5120850  32.7060585  45.2532883  33.3039360  18.7002678
  45.6920090  33.0667229  17.8832703  45.6516075  32.7358627  19.3597126
   3.4046657  62.7845764  79.6782684   3.5805266  62.1080322  79.0243607
   3.9371276  62.5326233  80.4327469  57.2806816  44.6764526  85.1876144
  57.1925278  44.2664146  84.3271866  56.6032600  44.2611885  85.7213593
  44.9276772  14.8677092   8.7470770  44.0241737  14.8343019   8.4327526
  45.2829247  15.6724939   8.3697815  79.4542465  48.0239296  79.2791672
  79.8561401  47.4994736  79.9717407  78.6293793  47.5772743  79.0885696
  73.0663681   9.2920313   7.0406408  72.4475403   9.9995489   7.2214694
  73.6241302   9.6343718   6.3421149  55.4838715  69.1838608  10.8159285
  55.7821007  68.3509445  10.4504843  56.2465668  69.7590027  10.7548323
  43.4670448  70.4203110  26.4887543  42.5620995  70.4013824  26.8001194
  43.6104507  71.3290558  26.2244644  39.3260880  50.8089294  72.3081894
  39.4263115  50.2469101  71.5398636  39.3720512  51.6997414  71.9609604
   6.0730329   5.2569938  62.7037277   6.1313381   4.3435626  62.4235954
   6.6116438   5.3000469  63.4938393  30.0210457  58.8382683  79.1310806
  29.0772343  58.7063026  79.2207336  30.1627789  59.7455025  79.4013901
  37.6733856  38.6573677  62.6490021  37.3911552  37.7528648  62.7848549
  38.2172585  38.6229324  61.8620796  79.2811966  20.5168476  62.0840530
  79.5029526  19.7466888  62.6074219  78.9440155  21.1488800  62.7189369
   9.7044191  13.7665253   2.7006760  10.6160402  13.7186546   2.9885750
   9.5331230  14.7031412   2.6024935  47.7133331  19.2341557  37.8325806
  48.1869125  18.9285908  38.6062660  47.4543037  20.1299610  38.0486107
  79.3209229  40.6010704   7.2424121  79.1212234  39.8074913   7.7389851
  79.1034775  41.3177071   7.8385496  67.8685837  50.0213890  36.7720528
  67.0808182  50.5635719  36.8130951  67.6151276  49.1986084  37.1904144
  76.8575211  37.0246010  55.7929916  77.6299591  36.4600449  55.8222542
  76.9515686  37.5987587  56.5530777  44.7312851   9.3348475  77.2919846
  44.0343399   9.1127253  76.6745987  44.6424217   8.6914692  77.9951172
  75.9088211  24.9154339  10.5098190  75.4411011  24.4427433   9.8213148
  76.8279800  24.8758144  10.2455978  19.4115181  66.7689056  83.4002457
  18.5460854  66.7897720  83.8086777  19.3457336  67.3821182  82.6682129
  51.6313477   3.3939290   5.8955607  51.1569939   2.5644081   5.8397632
  51.4862633   3.6928899   6.7932272  22.7230473  55.0903969  85.7720642
  23.5692902  55.5357170  85.8144531  22.1039982  55.7758827  85.5208206
  14.7851887  44.5323257  32.7910004  14.3919334  45.0834312  32.1143417
  15.4390526  45.0939674  33.2072372  49.0435066  13.6944704  55.2833824
  48.8401604  14.4254656  54.6998329  49.0323067  14.0778351  56.1603889
   5.3573208  70.4487076  28.8228741   4.8682270  69.7420349  29.2443390
   6.1961346  70.4673615  29.2836075  39.7570839  48.8238487  70.2795944
  40.0807190  47.9411087  70.4592209  39.2212143  48.7269173  69.4924011
  34.1892090  47.3704872  66.9788284  34.0515900  46.6841545  67.6316986
  34.9118156  47.0475540  66.4405060  15.6660948  56.9492836  64.3727798
  14.8189173  56.8451309  64.8059921  15.6269159  56.3543777  63.6239243
  82.8619690  21.3706837   6.6088023  82.1766663  20.7504215   6.8575273
  83.6592331  21.0178890   7.0039444  69.8620224  55.5824814   0.5171284
  70.3289642  56.1895332   1.0913099  70.3869095  54.7822762   0.5370023
  10.3887968  24.9325447  77.6933670   9.6345196  24.7883053  78.2647552
  10.0260401  24.9109802  76.8078308  37.5829849  19.3072071  16.9555740
  38.3218498  19.0469646  16.4054985  37.8018723  20.1920567  17.2477379
  52.0283127   6.1500444  32.4660072  51.6996574   5.3111258  32.1428452
  51.2429886   6.6828384  32.5909958  54.5491753   5.8027501  31.8602276
  53.6374855   5.9035435  32.1338921  54.5929184   6.2369490  31.0082951
  11.4607553  33.6154594  57.1564903  11.7517557  34.4006500  57.6201973
  11.1589251  33.0267830  57.8482895  64.9062195  49.6292152  79.4453964
  65.5513535  49.0029411  79.1170349  64.0940781  49.1263695  79.5070419
   5.6341081  22.9263916  18.4743595   4.6862617  22.9600677  18.6035290
   5.9463506  23.7824192  18.7675381   0.6344393   8.4812679  80.3405533
   1.3468137   7.8874564  80.1036072   0.0383091   8.4507780  79.5922623
  57.4448318  58.7161560  61.0232277  57.9486427  58.4654655  61.7975388
  56.9830589  59.5125504  61.2854385  39.2342110  55.3338089  59.7323456
  38.9503403  55.9169388  59.0283508  38.5719910  55.4423370  60.4149284
  71.5866776   6.8976026   7.2462640  72.2785797   7.5590162   7.2400546
  70.7891693   7.3832664   7.0356703  12.3301058  52.8216591   0.9570398
  12.4738560  52.6596375   0.0246688  13.0070143  52.3071480   1.3967040
   9.7465925  36.8670311  16.1819935   9.6997700  37.2227745  17.0693970
   9.1199331  36.1434784  16.1806393  77.3031693  34.4013100  63.4555550
  77.3596802  33.5125275  63.1046982  76.5057449  34.3995476  63.9850235
  60.1756058   9.2682543  63.4340477  59.2990150   9.1886206  63.0579147
  60.7330704   8.7493153  62.8542480   3.4543521  15.3973274  14.0001564
   2.8748252  14.6645317  14.2084599   3.2080486  16.0818176  14.6222820
  50.8902779  61.3889236  25.9024467  50.6572723  62.0498734  25.2504616
  50.9077911  60.5661011  25.4136829  67.1445541  26.5653458  24.1029263
  67.8462067  27.2164173  24.1070175  66.3480606  27.0705662  24.2659893
  35.7278481   8.6381388  16.8857193  36.5312347   8.4367523  17.3655624
  35.0363045   8.5906191  17.5458241  69.4948120  30.0593929  57.5286407
  70.2712173  30.5289783  57.2238197  69.1145554  30.6321964  58.1946220
  14.0330486  56.1479187  46.8139191  13.4342527  55.8692665  47.5067596
  13.9709902  55.4589767  46.1522980  32.8564835  17.3486671  20.5729103
  32.7746239  17.9119377  19.8033276  33.1480598  16.5065861  20.2234650
  30.8462048  51.5873032  15.5562544  30.1701622  51.0011673  15.2161951
  30.4572945  51.9710083  16.3422279   6.2554135  42.8070602  18.6886864
   6.0779033  42.3082886  17.8912239   5.9523101  42.2403755  19.3980732
  75.9218674  59.0054359  23.1737919  76.4908981  59.2253036  22.4361687
  75.1517334  58.6043854  22.7709427  83.1987534  18.2621021  22.9337330
  82.3572922  18.1411247  23.3736610  83.8473282  17.9624195  23.5707378
  47.8215256  66.5318832  19.7582321  47.1599350  67.0695724  20.1934547
  47.9046516  66.9147110  18.8848667  52.4971008  60.0051765  86.7042694
  52.1968269  60.8523178  86.3749924  53.3765221  59.9046555  86.3399277
  24.4349289  69.3798218   9.9943933  23.7061062  69.3619919   9.3741274
  24.0463123  69.1154327  10.8282433  42.4675446  41.2603188  80.8991165
  42.7499771  41.2375603  79.9848175  42.9671936  41.9791069  81.2863159
  21.7061710  60.1426697  73.1675644  21.9874763  59.8089371  72.3156662
  22.4251614  59.9231529  73.7600937  64.1415787  21.7696533  36.4441338
  63.9554520  20.8383732  36.3245201  64.5232925  21.8270359  37.3200531
  34.4035912  52.7592735   9.4654369  33.7475700  52.4907455   8.8221951
  35.0805244  53.1965446   8.9489231  38.4188232  17.1327782  19.4642982
  38.1246719  17.1518650  18.5536156  39.1370544  17.7646675  19.4972973
  37.1163445  53.1808128  42.4982796  37.4027786  52.3338470  42.8400955
  36.5650826  52.9618759  41.7470093  59.1203270  49.8615494  11.8548536
  59.3448486  50.1300201  10.9639301  58.7560806  50.6496620  12.2578802
  68.1351700  35.2681732  20.3440533  68.6850967  36.0292053  20.5301552
  67.6213379  35.1431160  21.1419048  35.2159996  55.2188263  41.7913361
  35.1934776  54.2757454  41.6290932  35.2437210  55.6113739  40.9187698
  81.2375946  51.7012215  83.1919098  82.1573029  51.9508057  83.2818146
  81.2206116  51.1187897  82.4324951  27.7211647  29.0682220  80.2508087
  27.5894299  28.4048195  80.9281311  27.6098156  28.5944023  79.4265900
  64.1969223  18.4874058  29.5997696  64.3153763  17.5400791  29.6688366
  63.3202248  18.5928516  29.2302876  18.1983910  10.5447845  62.2417793
  17.8871727  11.4055901  61.9617996  18.3539639  10.0692778  61.4257393
  22.7675343   0.3279510  73.4601593  23.0336647   0.3590410  72.5412216
  23.3660831   0.9292554  73.9033279  72.4902420  52.5861359  32.3966064
  71.9210358  53.3548050  32.4337807  72.5548630  52.3808403  31.4639168
  12.2482710  44.6922722  34.2217560  13.1913757  44.6672440  34.0600128
  12.0707092  45.6013451  34.4631805   3.5282648  28.8128242  46.6658707
   3.3915539  28.0590229  46.0920029   4.1834249  28.5169735  47.2979088
  70.7430115  28.8365498  44.2334595  70.5255051  29.1254635  43.3472023
  71.6956558  28.9149818  44.2839203  49.8352318  29.8709946  43.1824455
  49.5692863  29.9210052  42.2642937  49.3420677  30.5692921  43.6130295
   2.3448546  55.1666336  64.8920822   1.8563099  55.8509102  65.3495941
   2.5551782  54.5269203  65.5723495  70.8111877  18.3003159  85.4361572
  70.4923401  19.2028103  85.4275970  71.7163467  18.3631802  85.1312561
  31.5216331  55.2298889  11.7904682  31.9713650  54.9561272  12.5898590
  31.2970791  54.4105721  11.3494186  26.1974487  55.4934349  83.1417236
  25.3661137  55.2427979  82.7388611  26.7132893  54.6871452  83.1479568
  57.8774681  70.1736526  30.6135559  56.9321098  70.2854691  30.7136860
  58.0244980  69.2386398  30.7562695  10.2576904  34.9715958  67.5151672
  10.8673182  34.4786835  68.0643768  10.4454975  34.6763077  66.6242371
  67.1723709  15.4939890  48.1392136  66.4869003  15.8837957  47.5966187
  67.3177185  14.6287422  47.7565231  53.5416985  30.7918549  31.6009560
  53.1787071  31.1427727  30.7877369  52.7896080  30.7235794  32.1891174
  20.3283157  27.3970833  70.9017258  20.7441444  28.0748272  71.4346161
  20.4797668  27.6759510  69.9986572  27.2838573  41.9537086   1.3780036
  27.6063366  41.0938454   1.1080434  26.4100189  41.7823753   1.7291197
  33.5098648  10.9109325  15.9527407  32.7941170  10.3956137  15.5807467
  33.1749496  11.8074303  15.9715481  67.0991135   6.6109252  55.2046509
  66.2510223   6.3555574  54.8416672  67.4995422   7.1492558  54.5219460
  17.3268890  17.1941872   6.9316430  16.6856365  17.8349781   6.6243796
  17.2816982  17.2489052   7.8862085  82.3392639  65.5259018  56.5037384
  81.5047531  65.4636002  56.9684258  82.1612091  65.1525116  55.6405411
  38.8056412  25.0903168  69.3966370  38.2585411  25.7794399  69.7734909
  38.8321381  24.4104652  70.0699310   0.9513319   1.4002676  40.3344116
   1.6028327   0.7551746  40.0593987   0.1284209   1.0832652  39.9621773
  20.3956833  42.5099983  73.6029663  20.1609650  43.3522758  73.9924545
  21.1530151  42.2150307  74.1086121  63.9063301  58.5863266  45.3162079
  64.3550186  59.3303032  44.9144516  62.9814301  58.8328247  45.3103752
  45.5703201  68.2897873   9.0442562  45.8901520  67.9065857   8.2274961
  45.9936752  67.7758102   9.7318783  40.1989098  67.7628174  55.9988022
  39.6542969  68.4992218  55.7207184  40.8638763  67.6849442  55.3147049
   8.3313360  38.2467537   4.7169642   8.9582520  37.8275414   5.3064275
   7.5037599  37.7974548   4.8886566  39.0168953  21.6627331  24.6714344
  39.9178505  21.8542519  24.4109859  39.0691795  20.8119469  25.1069355
  42.9373093  63.2068405  34.1463013  42.8175964  63.2334404  33.1969872
  43.0022926  62.2745934  34.3534851   1.1865315  43.1786385  24.2999859
   1.0964997  43.3975296  23.3725090   0.4338692  42.6179047  24.4878960
  36.2342415  59.8611031  14.2490721  36.2629662  60.0151558  13.3047867
  35.4018860  60.2421799  14.5287085  41.1779823   3.3844128   2.9456809
  40.5261154   2.7942281   2.5675528  40.7065849   4.2062807   3.0818715
  70.8318100  41.8973541  60.2414970  70.1360474  42.1476173  60.8493843
  71.3573990  41.2619324  60.7275238   7.2986784  56.3572960  35.8704453
   7.2645607  56.3675232  34.9139061   8.0495958  55.8009453  36.0773926
  11.0520372  68.9468460  24.0570965  11.5997839  68.9418030  23.2721252
  11.5099907  69.5273361  24.6649914   2.4728475  63.6959229  76.2870560
   2.9713397  64.3324814  76.7994308   1.5771296  63.7726402  76.6157455
  62.1643715   5.6971722  31.7136326  61.4897614   5.2688956  32.2406120
  62.1481285   5.2301579  30.8782482  10.0832157   5.4556723  26.3318939
   9.8909807   6.0797644  27.0317421   9.3503637   4.8402357  26.3518238
  71.5958862  32.1115761  52.0582466  72.5364532  31.9470005  51.9913330
  71.2400208  31.3126450  52.4472237  26.9059486  58.6437416  79.6440430
  26.7342911  57.8435974  79.1475220  26.0977917  59.1509819  79.5677567
  37.0363884   4.4600043  12.3764706  36.7527733   3.8317058  13.0405741
  36.6158371   5.2818847  12.6292162   7.8858132  40.5136757  75.5965576
   7.3985186  40.0445290  74.9193039   8.7007933  40.0204773  75.6903305
  61.1368217  24.2595997   9.7737246  61.9773788  23.8422012   9.9620781
  60.6647911  24.2338715  10.6060429  36.2453079  32.1463089  72.0050583
  36.1962433  31.8220215  71.1057968  35.5180893  31.7160816  72.4548264
  12.1484804  43.9353104  10.1895113  12.8052464  43.2618790  10.0123663
  11.9247398  43.8147888  11.1123590  14.0513115  45.8917427  43.9367332
  13.3350077  45.2995567  43.7076950  14.2844496  45.6501846  44.8331299
  76.9902954  27.3787937  78.4098434  77.4190140  27.7783642  77.6530228
  76.0878067  27.6950912  78.3685226  61.4737511  32.4760590  46.5143433
  61.0663376  33.2947617  46.7971306  60.7759018  31.8246288  46.5841942
  54.7195549  23.6767654  36.4938507  54.2987213  24.3884468  36.0115242
  54.9331131  24.0580673  37.3454552  74.4323349  66.8058777  56.1914673
  73.9725189  67.5665588  56.5466614  73.9169388  66.0551758  56.4864998
  51.6383133  62.6377029  86.2419128  50.9184189  63.2312050  86.4557877
  52.3269539  63.2091522  85.9021301  68.3465576  39.1285057  25.7468262
  67.8453445  38.3660927  25.4574490  69.1625443  39.0818710  25.2486134
  11.0639029  59.6695900  49.1505623  10.6959362  58.8546104  49.4920807
  11.9602680  59.4425201  48.9031754  18.1114292  18.7959099  58.7691689
  18.8930588  18.2530422  58.6663055  18.4364834  19.6157360  59.1412659
  67.7670746  15.4002733  20.8320236  68.6082535  15.8406830  20.7108078
  67.4975357  15.6386623  21.7190132  23.3390179  51.8612289  83.4286804
  23.3246460  50.9115639  83.3096771  22.5554676  52.0497818  83.9451370
  39.9065208  28.8237915  78.8867798  39.0853691  29.3078728  78.7995605
  39.8908653  28.1938171  78.1662827  72.1719131  26.5484333  59.1399956
  72.9997406  27.0268250  59.0944443  71.7453003  26.7276402  58.3020706
  86.0942154  37.9382362  82.9635773  85.9972992  37.9117889  82.0116653
  85.3775406  38.4982872  83.2618256  59.3738785  40.0771675  25.4910374
  59.2804413  39.3090744  26.0545406  60.2556229  40.0008926  25.1264267
  84.2741089  52.5830994  76.5217590  85.1659241  52.5912857  76.8693619
  84.3660889  52.8878975  75.6190567  43.1259689  38.5489807  26.8052788
  42.2505798  38.6076317  27.1880150  43.6760635  39.0775146  27.3834476
   1.4591759  56.7422485  74.6321259   2.1625755  56.7308655  73.9830246
   1.4553468  55.8572006  74.9966965   2.0317979  50.5465775  20.1717396
   2.1962185  50.8448639  21.0662918   1.0780174  50.5461426  20.0909061
  29.2744617   9.8210440   7.2285295  28.9821205  10.6618271   7.5804577
  28.7538834   9.1702690   7.6994014  66.5510712  69.9156418  83.1618958
  65.9822540  70.2277603  82.4581451  66.9684982  69.1325912  82.8029861
  47.8018646  33.6478729  35.9732361  47.3895073  33.2395515  36.7344627
  47.3260193  34.4699974  35.8552818   7.2536602  54.5752220   8.4472361
   6.7440009  55.3741226   8.3121901   7.3800273  54.2201347   7.5673633
   5.5359182  11.1294518  11.3734789   5.7960730  11.9904928  11.7008314
   5.6465478  11.1904917  10.4246550  16.9362106  31.7007923  86.9231796
  16.5434170  30.9348125  87.3417740  17.0873680  31.4280281  86.0182037
  34.7254143  44.5354042  19.9777927  34.9417381  44.1072350  20.8061085
  35.2274742  44.0533257  19.3207016  20.1350479  39.4636421  39.8927956
  19.8450031  38.8410759  40.5595169  20.7959919  38.9865837  39.3909988
  36.3839569   0.9618607  57.3115883  35.7419128   1.2537022  56.6644096
  36.0425110   1.2791286  58.1476402  61.6910858   5.7617106   1.6266204
  62.5695686   6.1387105   1.5778857  61.7644997   4.9235301   1.1702260
  32.1331787   6.6596847  23.5879307  32.7964859   6.8751779  24.2435360
  32.6190605   6.6034398  22.7651367  66.3365631  12.3656273  74.5484161
  66.4731903  12.6809120  73.6550140  67.1965942  12.4384422  74.9622574
  86.1912155   9.5082932  49.1107330  86.2634125   9.0943604  49.9707794
  86.1545868  10.4461555  49.2986259  19.9014416  24.7756119  19.4859638
  19.4350338  25.2288742  20.1882820  19.4208145  23.9560966  19.3692455
  19.7321739  18.8411388   7.5198178  20.4196434  18.7624798   8.1812048
  19.0082016  19.2694035   7.9766388   6.9501901  24.4732132  15.3152065
   6.3031335  24.3544674  14.6199017   6.8909097  23.6728001  15.8367968
   3.9018292  34.4217415  10.3998661   4.6110559  34.5250015  11.0343475
   3.1326036  34.2174072  10.9316282  52.6319008  38.4013214  33.0311089
  51.7987862  38.5269699  33.4853783  52.5909843  37.5043335  32.6994972
  22.5333157  17.1025734  87.8607330  23.1630878  17.4905758  88.4682465
  23.0734158  16.6974983  87.1821747  60.3748894  34.4092674   5.4482985
  60.3230667  34.1641884   6.3721385  61.1744843  34.9314613   5.3835239
  85.4023514  15.4100475  35.2811661  85.8424072  15.3340797  34.4345169
  85.8979263  14.8321390  35.8613853  39.3843613  25.5639915  73.4335403
  39.6461792  26.4846382  73.4238586  38.7952309  25.4904079  74.1843719
   2.8916042  54.6399078  30.5304241   2.0739677  54.2244644  30.2563648
   3.1928580  54.1113548  31.2694168   2.6710870  59.7274094   9.9635859
   3.4316633  60.2341003  10.2482252   2.7085631  59.7557564   9.0075397
  67.9002228  18.2986526  33.4498749  67.3900070  18.9376030  33.9475250
  68.6851349  18.7760067  33.1810265  76.2058563  35.6541367  71.6503067
  76.4590073  36.5747108  71.5817871  76.4228439  35.4124489  72.5507202
   5.6732702  62.1164742  53.2623711   4.7567835  61.9871368  53.5064087
   6.1689653  61.6628418  53.9440842   6.4499831   3.3814657  60.5579262
   7.0366945   3.2199311  59.8190689   5.8613381   4.0706525  60.2501106
  39.2399750  55.6415520  24.1894512  38.9840202  55.4485054  25.0913677
  38.4157982  55.6477852  23.7026997   6.7772331  53.9980850  80.9030457
   7.7207861  54.1584511  80.8881531   6.5437708  53.8569107  79.9855499
   7.4878607  66.5147247  19.6910706   7.2927594  66.4848785  20.6277027
   8.2704554  65.9725266  19.5920410  58.9740753  12.9577198  19.7986736
  58.3610725  12.6416388  20.4624157  59.8385925  12.8173456  20.1848526
  13.9452047  14.4961958   1.2667348  14.2973766  14.2275610   0.4181818
  14.6702566  14.3680820   1.8783870   2.0135560  64.1021194  28.6650696
   1.2689655  63.5451126  28.4380074   2.3066301  63.7752151  29.5156403
  69.1083069  48.0564117  43.9218254  69.1613312  48.4906197  43.0704231
  69.4236374  47.1677094  43.7575073  29.0031128  62.4641151  78.0179672
  29.2546864  62.4643784  78.9415131  28.0802307  62.2101326  78.0211945
  63.2403717  42.4783478  23.0700359  62.7759247  42.5074806  22.2335720
  62.9471970  43.2624512  23.5342121  84.7802582  37.2374611  79.6997375
  83.8241577  37.2332230  79.7453308  85.0142822  38.1649666  79.6651382
  27.2815800  70.9524002  51.9271393  26.4128609  71.2202377  52.2268372
  27.4026985  71.4162827  51.0986633  20.5157890   6.4333091  68.0282593
  21.0587101   6.6641278  67.2744751  21.1083260   5.9638987  68.6154480
  85.9899139  64.0973969  75.1696396  86.1518021  63.7598076  76.0505829
  85.7425385  63.3262749  74.6593399  56.9618340  71.1996231  20.5622845
  56.3242989  71.7476807  20.1046696  57.8003731  71.4165115  20.1547985
  37.8100357  63.0230675  82.6939087  38.7447357  62.9435272  82.5035248
  37.3826790  62.4921913  82.0217667   1.8088003   8.2262859  69.7656174
   1.4977995   8.4914570  68.9000549   2.4949379   8.8590736  69.9778137
  17.3595181  61.3001900  29.4331017  16.6751690  60.7101097  29.7488613
  17.1901207  62.1269073  29.8848438  19.8063679  36.8181496   2.0582612
  18.9166641  37.1175613   2.2453773  19.8241711  35.9123230   2.3671162
   5.7212043  52.2480392  58.6044197   6.2340274  52.2176170  59.4120827
   4.8377271  52.4803848  58.8902779  70.8813477  68.5558243   0.3484857
  70.6682434  67.7036972   0.7288899  70.2874756  68.6403961  -0.3974352
  67.3110352  58.2646294  39.9747696  67.6137466  58.3832359  40.8750648
  66.4739532  57.8085938  40.0616570  59.8376808  17.3474236  23.6520786
  60.0297890  16.8405037  24.4409752  60.5019188  17.0697365  23.0212822
  68.5277481  25.7753849  66.3075790  69.1952362  25.1022243  66.1751251
  68.1679535  25.9310284  65.4343414  10.6807613  54.2674484  70.0295181
  11.0903111  54.2868042  70.8944626  10.0953197  55.0247231  70.0247269
  85.0008621   6.2308774  25.3068638  84.6528473   6.3387833  26.1920013
  85.8839722   5.8853784  25.4371948   3.5484574  42.0576820  42.1971588
   2.7433832  42.2419662  42.6810226   3.2666292  41.5139694  41.4615097
  43.9133987   4.0020771  54.6590996  43.3364639   3.6168020  55.3186035
  44.6757736   3.4235728  54.6404457  35.1117630  19.7921200  81.6227570
  35.0539589  20.6780605  81.9805298  34.2247391  19.4420280  81.7055664
   8.6979351  60.5426636   7.8983531   8.5320978  61.4748154   8.0391502
   8.8463640  60.1905594   8.7759771  58.7491112  57.0985146  32.1639709
  58.7124329  56.7585602  31.2699242  57.8365288  57.1126785  32.4524536
  54.8916016  15.6792784  64.6763763  54.5561180  15.6496124  65.5723724
  55.6560593  15.1033354  64.6876678  56.6250763  54.8851013  56.6699409
  56.9254684  55.1896439  55.8136368  55.6733208  54.8299828  56.5841942
  43.4263077  56.5811768  38.3736801  42.6461601  56.0369148  38.2669907
  43.4097557  56.8458405  39.2934151  11.1951294  26.5648308   2.4344082
  11.1148329  25.8586349   1.7932611  10.7165613  26.2482948   3.2005737
  43.6716576  53.8315392  55.5531464  43.7893219  52.9001732  55.7400894
  44.0435104  53.9492149  54.6790123  18.6766338  46.2279053  56.8587189
  17.8622665  45.7375908  56.7463303  19.2518368  45.6305466  57.3367729
   5.0080051  38.6872292   7.1330833   5.0004787  39.4872856   6.6076431
   5.4965396  38.0572891   6.6032343  61.8775330  35.5030823  86.5075989
  62.6842422  35.9462776  86.7703247  61.2030792  35.8774948  87.0743103
  37.9520760  45.8023529  52.7420197  37.9703903  45.4014778  53.6110420
  37.1289444  45.5017586  52.3568878  23.0056114  23.4647312  47.9446259
  22.5591164  22.8615494  47.3504524  23.7904987  22.9916248  48.2209473
  57.6860466  66.1041718   0.7305589  57.4637947  67.0332031   0.6693720
  58.2722435  65.9488602  -0.0100350  28.7654972   6.5939202  74.7554016
  29.0823879   7.4265079  75.1055603  27.9013195   6.4810052  75.1512299
  47.4382172  37.5462761  81.3503418  46.6085930  37.6161270  81.8226547
  47.2802925  36.8746300  80.6868744  20.1175385  60.7475624  20.5437050
  20.9538727  60.5925369  20.1046791  20.3190784  60.6722946  21.4764156
  49.5635338  37.5381470  46.9491119  49.2751808  36.6323280  47.0612450
  50.3565331  37.6046562  47.4810486  53.4928741  67.8152924  81.3510132
  53.7302361  67.2780304  82.1068115  54.1797829  67.6405029  80.7077026
  75.0988770  53.8285103  76.4280167  76.0404205  53.6568832  76.4447632
  74.7067490  52.9895248  76.1860199  57.0913429  12.7847385  13.9137440
  56.2639618  12.3037729  13.8951874  57.7166557  12.2023497  13.4824247
  77.9682541  55.0717850  18.3471565  78.1991653  55.9702339  18.1111622
  78.8073349  54.6137581  18.3959122  58.3186073   5.5670447  89.0799408
  58.6671257   6.3812890  89.4429474  57.7198219   5.8499036  88.3888016
  84.6489792  48.3024445   5.4275470  83.8688354  48.2227020   4.8786917
  85.3237000  47.8126221   4.9573717  62.6364212  60.2616348  35.5248070
  62.0885353  61.0195961  35.7286453  63.5150681  60.6244469  35.4126663
  25.7639465   6.2795129  71.8484497  25.0685577   6.8900456  72.0932312
  25.3954334   5.4137712  72.0242920   6.3301163  70.5526581  17.7294865
   5.6620173  71.0349121  17.2423401   6.3907094  71.0089798  18.5687332
   3.2082000  -0.0273389  48.1263695   4.0730958  -0.3247130  47.8439598
   3.1179333   0.8451023  47.7430573  73.0052719   4.9238181  27.4633942
  72.3644180   5.3402219  28.0397167  73.8390198   5.3310490  27.6984673
  30.9979496   8.5612383  82.1040115  30.5586910   9.3652067  82.3813553
  30.3229275   8.0681229  81.6377335  64.3672791   5.9563389  67.3187637
  63.7215614   6.1886911  67.9860687  64.2134476   6.5800719  66.6091690
  15.4702568   5.0151753  30.1848240  15.9605856   4.1942768  30.2288265
  15.8605623   5.4881935  29.4498787  25.2502689  46.7038956  28.8743839
  25.6843853  46.1237602  29.4998608  24.3158913  46.5784607  29.0400162
  23.2617493  40.6808662  40.1030693  23.1370754  39.9686050  39.4758759
  24.0540295  40.4408989  40.5836296  48.5834618  36.7433357  85.2724915
  47.9779854  37.3516579  85.6962585  49.4523621  37.0543976  85.5264359
   3.8486156  40.1839561  13.0686731   4.7505341  40.3571510  13.3384485
   3.9112129  39.4134026  12.5042648  30.6074390  70.0961227  83.4196548
  30.6532421  69.1562500  83.2442169  30.2760181  70.1566620  84.3156052
  62.0591125  16.1983089  34.5696487  61.3999481  16.2741566  33.8797379
  61.5602264  16.2536354  35.3846855  81.8128510  53.4456215  56.5036774
  81.5125809  53.4143639  57.4120216  82.2129517  54.3104820  56.4133034
  25.6836548  54.2598343  14.2102079  25.5342655  55.2052803  14.2034407
  26.4429131  54.1413994  14.7809372  51.0565109  66.7251892  38.6477051
  51.6568298  66.2587357  39.2293205  51.0533638  67.6237946  38.9774437
  79.7114410  19.7789898   1.8822643  79.9826660  19.4298553   1.0332795
  80.3792038  19.4680233   2.4935150  52.9216156  12.2711296  76.4431763
  53.1865234  11.3643026  76.2891617  53.5059319  12.7887287  75.8891983
  49.3515205  62.9235077  52.5545120  48.6547661  63.0381889  53.2007408
  48.9342346  63.1180458  51.7153130  86.5884476  14.4392157  33.1584625
  87.4747086  14.6600542  32.8720970  86.2252045  13.9244261  32.4378548
  53.8597717  42.9373779  37.4788742  54.4193306  42.8872948  38.2538719
  53.9859009  43.8272247  37.1494904  60.2654533  23.6286449  28.8741169
  59.4781685  23.0848389  28.9003963  60.1280136  24.2131844  28.1286945
  54.5175247  58.5680618  58.2403069  54.5480728  57.6859550  57.8699150
  53.5926552  58.7117462  58.4408112  74.8373871  19.4456310  70.8562012
  75.2361603  20.2228470  71.2475357  74.4042816  19.0048161  71.5871811
  13.1292648  38.6046181   4.2934961  13.1484118  38.2945862   3.3880982
  14.0491714  38.7438354   4.5184927  60.1316338  21.2666817  48.6668129
  60.7698326  20.9283390  49.2948723  59.9065247  20.5113621  48.1236305
  23.6287575  26.1112194  86.9910660  23.3041096  26.9900341  86.7947998
  22.8395805  25.5735779  87.0571899  84.0463409  40.6466179  22.4292755
  84.0328751  41.4775047  22.9043274  84.1924362  40.8949509  21.5164661
  83.0871429  52.2614708  38.4920044  82.2185593  52.0632973  38.1419678
  83.5630569  51.4329185  38.4351120  34.7222595  37.7795143  41.7212067
  34.5409393  38.6893082  41.4853477  35.1201401  37.8321037  42.5902061
   7.5728149  34.4663200   7.1770329   8.0452366  33.8447380   6.6232414
   6.7312799  34.0433807   7.3478403   2.2448153  45.2332802  76.8638840
   2.6785674  45.1279259  77.7106323   2.8045630  44.7609024  76.2476196
   1.6594186   1.7761389  84.3293915   1.8939213   2.2559214  85.1237793
   1.1092215   2.3843670  83.8358612  15.7370129  28.3533325  85.2895355
  14.8450842  28.3665218  85.6366959  16.2058811  27.7414780  85.8570099
  26.2005005   8.6023808  10.6148357  27.0511532   8.9002228  10.9371881
  25.7979832   8.1682158  11.3669748  59.7472420  68.3653946  89.2191620
  60.1176186  68.0091400  88.4116135  58.9444351  68.8059464  88.9405060
  75.9565430  64.4192276  12.5117311  76.1881790  63.8590393  13.2525225
  75.7625122  65.2696075  12.9059782  71.0218735  58.2781410  81.2350311
  70.4188919  57.5576668  81.4182205  71.8877716  57.9224892  81.4349365
  47.5288162  70.6424255  19.4072304  47.3034325  71.0727310  18.5824451
  48.4659386  70.4614029  19.3346710  70.5402069  66.0332260  86.6446991
  70.9776764  66.8811569  86.7212067  71.1139908  65.4247971  87.1103363
  59.2139893  65.9071960  87.6744843  60.0855904  66.2592850  87.8549728
  59.3759232  65.0209732  87.3510437  52.9595108  63.4447937  54.3758774
  52.4002304  64.2190628  54.4386826  53.8322487  63.7600479  54.6107674
   1.0913160  48.4770317  70.9158936   1.0777014  47.5382500  71.1022568
   1.6648066  48.5617180  70.1542053  85.8901291  39.7997513  79.9756546
  86.3196182  40.5255585  80.4283981  86.4862595  39.0596581  80.0902481
  75.3060684  35.6787872  28.1815701  75.6678848  36.4920998  27.8296528
  75.0317764  35.1846504  27.4090271   3.0575824  35.9426422   5.8123126
   2.3512058  36.4413147   5.4017200   3.3613744  35.3483200   5.1262193
  80.3963928  36.1443710  32.2581444  80.2769928  36.5151062  33.1325188
  81.1905289  35.6146774  32.3289833  55.3882599  37.2243919  80.6744080
  56.3260841  37.4098587  80.6262589  55.3133850  36.5393562  81.3387527
  22.0162144  10.8549557  85.5142746  21.2641277  10.4497671  85.9460449
  22.2488098  11.5914927  86.0796509   0.3751619  19.3347244   9.3119774
  -0.4642233  18.9505863   9.5651608   0.5710647  18.9426193   8.4610319
  66.2824860  24.2036972  40.0253983  66.5866013  24.8169861  39.3563499
  66.9973755  24.1687336  40.6609650  23.9598846  54.5003891  82.2177200
  23.0791073  54.7361832  81.9264069  23.9790268  53.5444260  82.1730652
   8.8124781  36.6895065  79.7962036   9.6860275  36.3052979  79.8705368
   8.9077682  37.5721245  80.1541595  52.8119774   2.3202922  12.8285799
  52.1911583   2.2535267  12.1030731  52.7221909   3.2214766  13.1384792
  34.0088882  10.7222624  10.5739937  33.8216820  10.6926985   9.6357450
  34.4883423   9.9123201  10.7482004  58.1078110  13.6092529  16.4453506
  57.4562798  13.1397123  16.9661865  57.8750114  13.4137506  15.5377073
   4.8645997   5.6730847  32.4549446   3.9932086   6.0498676  32.5771904
   5.3787675   6.3801813  32.0652313  54.3820724  39.1863136   7.8820238
  54.1117058  39.2884636   6.9695001  53.8182373  39.7883339   8.3677092
  76.5889893  33.1346474  11.6339464  76.9145584  32.9726143  12.5193748
  77.2013092  33.7720642  11.2665262  67.8129425  66.9587173  49.6831703
  67.4452667  66.2458954  49.1607513  68.6526108  67.1526031  49.2665138
  11.6543407  70.7248077  26.3209991  10.7028971  70.6253433  26.3540668
  11.8817120  71.1326218  27.1565971  21.9505787  11.0109015  74.7828751
  22.3076630  11.7726812  75.2393951  22.5506878  10.8671665  74.0511398
  49.0263290  50.8274651  70.3294449  49.1820755  51.4645958  69.6322861
  49.3633881  50.0026283  69.9797821  60.7356110  55.0684357   6.6145105
  60.8351212  54.6569366   5.7560239  60.9846497  55.9817200   6.4726658
  63.7615967  10.1891317  35.5425758  63.1025314   9.5022898  35.6431274
  64.5617905   9.8080082  35.9040527   2.7106278  13.3188705  58.4508133
   2.6839643  12.5523233  59.0234604   1.7909185  13.5338583  58.2954216
  63.6782684  41.0626793  36.4813843  63.1031761  40.8563995  37.2182350
  63.0960770  41.4385910  35.8210983  47.1370277   5.0612764  85.6681137
  47.1495667   5.6244731  86.4419861  46.2232285   4.7886930  85.5850449
  66.7741776  56.6874580  11.8637409  67.6219482  56.6097832  12.3013287
  66.4871674  55.7833672  11.7353849  14.9994812  66.6414108  68.5024261
  15.5994024  67.3440781  68.7525940  15.5468750  65.8565598  68.4777679
  83.7059631  39.7022400  26.7918835  84.3822403  39.2865410  26.2570152
  83.0059433  39.0512772  26.8413467  75.4325867  34.3327942  74.8109436
  74.7134018  33.8949089  74.3556824  75.0718994  34.5568352  75.6688156
   7.0044856  37.9719315  34.9172668   6.7956700  37.0377960  34.9209824
   7.9493947  38.0067253  35.0661583  19.1930580  13.7075787  49.5394516
  19.1018047  13.5178328  50.4732094  19.1920528  12.8476257  49.1190834
  35.0694237  12.2084723  71.5484238  35.1213570  11.4500265  70.9667892
  34.3068504  12.6966400  71.2379379  52.0303078  27.8377247  39.0848999
  52.6514168  28.4133778  39.5310860  51.2416801  27.8706551  39.6263962
  69.0770416  11.1954651  27.9024162  68.8434296  12.1136360  27.7659683
  68.7723465  10.9999256  28.7885056  52.1969757  27.4083481  79.9519272
  51.8913574  26.5665607  80.2898941  52.6609764  27.1879578  79.1442413
  26.7184200  56.6341095  24.3852329  27.1040325  56.1874962  23.6315289
  26.6422482  57.5474777  24.1092186  56.4864578  30.7796192  57.6871414
  55.6625443  30.8497543  57.2049866  56.2811127  30.2135334  58.4311943
  28.6501007  56.1802750  13.6880741  27.9413776  56.7856102  13.4700994
  29.4478970  56.6439934  13.4336748  80.0448532  39.3593330  62.2170105
  80.2916794  38.4345131  62.2128525  80.7113495  39.7875290  61.6797371
  55.3861275  47.7590446  41.1417007  54.5332108  48.0690269  41.4461250
  55.9515419  47.8189735  41.9117279  77.0617142   4.5398421  40.7964516
  76.5305786   5.3039522  40.5722580  76.7960510   4.3169103  41.6886177
  27.2711658  22.8623276   7.7961211  28.0318909  22.4753036   8.2294121
  27.3000469  23.7869148   8.0421619  62.4571342  18.1755638  83.8317871
  63.4027100  18.0272808  83.8431931  62.2585640  18.5222855  84.7016068
  65.8885117  30.5240631  35.8401451  66.5611877  31.1728973  36.0469170
  66.1191254  30.2102966  34.9657326  67.3868179  63.4339294  88.5105057
  67.6689606  64.2674713  88.1338959  66.9578934  63.6750412  89.3315506
  76.4537354   3.4191508  23.8843117  76.0161743   3.3623004  23.0348759
  76.0297241   4.1565552  24.3232689  84.0607224  16.9677753  20.6388645
  84.8678284  17.3785839  20.9487782  83.4553452  17.0425835  21.3765297
  83.9770126  40.1095467  69.8881073  84.1912308  39.1766777  69.8783798
  84.3854752  40.4573708  69.0953827  24.9635258  70.9327774  38.9683456
  25.3578568  71.6927414  38.5403290  24.8653412  70.2876434  38.2680626
  43.8329697  57.2586746   0.8031730  43.2650871  57.9612770   1.1195509
  43.2632294  56.7184067   0.2556858  21.5353870  47.6894989  78.3453217
  22.2977829  47.3548470  77.8731003  21.7898655  48.5714645  78.6166382
  27.2946911  37.4855804   4.7976317  28.2166214  37.2293549   4.7726560
  26.8157043  36.6568451   4.7981257  71.2872238  57.5407562   2.0134692
  70.6604080  57.5251198   2.7367201  72.1261139  57.7426224   2.4278841
  82.6281662  26.3155842  48.3172493  81.7247314  26.5553818  48.1110344
  82.7871475  25.5207195  47.8081818  56.7527428   6.6081500  68.0506973
  56.0559654   7.2594948  68.1312103  57.4259872   7.0412464  67.5259094
  36.2844582  14.0978746  72.9748306  36.3863029  13.6787949  73.8293610
  35.5341988  13.6547356  72.5786362  42.1451569   1.7809290  -0.2562081
  42.7368622   2.5213184  -0.1222743  41.5631332   1.7989951   0.5034988
  25.8480873  57.0357437  74.5937729  25.9323540  57.7189484  75.2588730
  26.5753689  56.4388924  74.7700195  60.3624039  57.8304062  15.4335346
  59.4746246  58.1122894  15.2130270  60.3860054  56.9039841  15.1939163
  54.3090744  25.8445358  87.5744476  53.9110947  26.4570656  86.9558640
  53.9428558  26.0902557  88.4240036  61.7450562  23.2766018  65.7158585
  61.6473274  22.8908691  64.8452835  61.6780014  22.5338039  66.3158493
  10.1857777  39.1095772  28.2422047  10.5446520  38.3368835  27.8058662
  10.8151197  39.3068314  28.9359264   8.7602291  61.9579048  44.1680260
   8.1862364  61.3841095  44.6754951   8.3109894  62.0653954  43.3296585
  18.6028957  53.1791229  65.2059937  19.4048538  53.5790215  65.5424042
  18.9057026  52.4287186  64.6946869  52.6368484  10.6005669  44.4099579
  53.1370163   9.8123293  44.1984215  53.2935219  11.2953777  44.4573746
  84.7536697   2.6707785  24.3775291  83.9550476   3.0675302  24.7254028
  85.0392990   3.2714393  23.6891556  67.9151306  36.4606438  71.4799118
  68.2140579  37.0120468  70.7568436  67.5087662  37.0714302  72.0947571
  41.9378815  66.2025833  70.7574387  41.8204384  65.9118805  71.6618347
  42.7019196  66.7783661  70.7882385  49.3398552   8.3151283  37.6346283
  48.4010315   8.4776382  37.5428314  49.7419052   8.8331118  36.9372902
  76.2781525   8.7262192  13.3370943  75.5032272   9.0209169  12.8586931
  76.4954147   9.4576998  13.9149933  11.7420225  52.7920303  13.3627119
  11.2209148  52.0060158  13.5266056  12.6202908  52.5651588  13.6683378
  15.5089483  29.1257763  82.5437469  15.2216616  30.0283070  82.4054108
  15.7034149  29.0771255  83.4797211  22.7539940  70.5970383  32.8470039
  23.4561863  70.2727509  32.2830925  23.1636238  71.2897110  33.3653069
  68.7874680  53.6136742  51.2677078  68.8314362  54.0763206  52.1045227
  68.7578659  52.6874390  51.5073853  51.5306969  46.0740280  31.5179615
  51.4119987  46.4189453  32.4029312  51.3273392  45.1418495  31.5949421
  62.9155693   8.0808697   8.5598316  62.5964775   7.1852341   8.4491558
  63.4523392   8.2415113   7.7837477  17.6870823   0.6652654  87.7887497
  17.9972591   0.4991100  88.6789246  17.5542679  -0.2058371  87.4148865
  19.3105659  65.4638977  11.3727703  18.6689682  64.8217468  11.6764479
  19.0895958  66.2657394  11.8465338  27.8945847  51.3218651   5.9665499
  28.1979027  52.2297325   5.9636106  27.7629814  51.1103134   5.0423427
  35.3635139  25.8124962  12.1040802  35.3363342  26.3361988  12.9048481
  36.2915497  25.7773666  11.8722515  82.0528183   2.8627942  44.5935593
  81.9821854   1.9112997  44.6703758  81.6890793   3.1969399  45.4134789
  19.4740829  40.1006126  43.2454033  18.6801624  39.8626900  42.7665367
  19.8919106  40.7672615  42.7002106  57.1199036  66.6319733  81.9250565
  57.2573509  66.8926544  81.0143509  57.9103508  66.1442566  82.1564865
  46.5693512  24.5663548  77.4151688  46.4623833  23.6809387  77.7627792
  47.3633423  24.5202599  76.8825531  59.4521904  64.6247635  81.0084915
  60.0425072  64.7626801  80.2677231  60.0241585  64.6362762  81.7759247
  11.6042938  37.8067665  40.3244133  10.7233076  37.7603035  39.9530144
  12.0091610  38.5560951  39.8875809  10.3652449  26.6160374  68.8891144
  10.8607569  26.5784206  69.7072144  10.0214033  25.7298679  68.7763901
   7.4918623  47.3844299   5.0029864   7.4513535  46.8075562   5.7657499
   8.3908434  47.7131348   4.9987607  50.0879898  41.9239693  14.2595577
  49.5181274  41.6105499  13.5572367  49.5301628  41.9266701  15.0374088
  55.2613029  34.8887787  62.7930832  54.5556221  34.9870987  63.4322891
  55.7513695  35.7090874  62.8492699  44.4011078  67.4348297  56.7894363
  45.0350533  67.7044678  57.4539948  43.5482445  67.5817490  57.1984253
  18.7817383  42.3487129  46.6239700  18.5716095  42.9056015  45.8743362
  18.5753193  42.8873749  47.3878212   8.9672594  63.8397179  71.0740356
   8.4612904  64.6494446  71.1416397   8.4576864  63.1969757  71.5674362
  78.6988297   9.7355852  10.9750166  79.2056808   9.0862179  10.4875174
  78.8011398   9.4802122  11.8918314  18.1322365  65.9190903  79.6862946
  18.7484875  66.5971603  79.9632111  18.4095478  65.1352615  80.1605759
   0.7339006  47.0160103  21.7703285   0.2956938  47.7643547  22.1755276
   1.5157605  46.8779793  22.3050003  85.1475372  47.9764099  79.9276657
  85.1021118  47.0304184  79.7888718  86.0846024  48.1690712  79.9596405
  72.8549042  69.9167557  42.3311729  72.2566147  70.6330872  42.5436440
  73.1897812  70.1344223  41.4612808  66.9829941  41.1424942   5.9394827
  66.9894180  40.2732239   6.3401809  66.0942383  41.2424278   5.5983648
  56.7796288  66.1412582  44.4469032  56.0161285  65.6930542  44.0830231
  57.1971436  65.4868469  45.0069618  72.7987518  37.8448563  72.7522888
  72.7316284  38.7668457  72.5039749  71.9064636  37.5086555  72.6684265
  50.0619926  19.5667362  47.3020668  49.2378235  19.7269421  46.8423805
  50.1759338  20.3334198  47.8637123   9.7112970  36.2719727   6.2140627
   8.7969246  36.0340347   6.3674908  10.2127714  35.6426430   6.7324233
  72.8967819  53.4254150  22.2865276  72.5591354  52.7181854  22.8361244
  73.8484268  53.3402557  22.3444424  29.3700371   6.9949527  71.6186142
  30.0063057   6.2798634  71.6121292  28.9154510   6.9034853  72.4560013
  28.1002197  40.5047722  87.3864746  28.9914875  40.8510513  87.3421249
  28.0287209  40.1397018  88.2684326  75.4834518  51.3237076  38.8614769
  75.5145493  50.7160835  38.1225204  74.9067154  52.0288734  38.5676155
  72.0066605  57.3750076  59.2127113  71.3294144  57.8739166  58.7559242
  72.8289795  57.7818832  58.9398003  48.4009972  12.1909084  52.2380905
  48.0297050  11.6683149  52.9489136  48.3143921  11.6364231  51.4626694
  52.4033127  21.8615608  17.7139473  52.3246307  21.7230396  18.6577969
  51.8063507  21.2209740  17.3272705  60.2973099  34.2187309  43.5609283
  60.7253571  34.8128891  42.9445000  60.7838936  33.3984108  43.4800453
   0.5046666  16.5330639  68.3208389   0.9390823  15.6836538  68.2432709
   0.1017977  16.5176506  69.1889877  24.3869762  29.9314384  66.5451050
  24.3052273  29.5346050  67.4123230  25.0448074  29.3982601  66.0987701
  84.0867081   8.9530687  77.7371521  84.0436020   9.5079012  78.5159607
  83.1724014   8.8197498  77.4871521  48.6018333  33.0171356  48.9287987
  48.9682961  32.1605835  48.7091293  47.6540642  32.8906975  48.8843727
  14.0561590  34.8472900  80.0142593  14.5833473  35.5678101  79.6690674
  14.6148596  34.4363785  80.6739807  68.9749603  51.1637573  66.6240311
  68.6013947  50.2872963  66.5318451  68.5666351  51.6730080  65.9239120
  16.6054935   3.8062394  15.6603756  16.0467854   3.6821115  16.4276237
  15.9971781   4.0217986  14.9534674  15.4906206   5.8301907  63.4978027
  15.4549646   4.8918390  63.3121758  16.3794537   5.9767165  63.8214378
   2.5685608  33.3261986  60.5635796   2.2311008  32.4353638  60.6571808
   1.8982241  33.7842064  60.0565186  21.1961136  50.9815788  76.5442047
  22.0859032  50.6383171  76.6259308  20.9133015  50.7085762  75.6714401
  59.5177574  66.9123688  17.0069370  58.8520660  66.9678879  16.3213673
  59.0464554  67.1139603  17.8153095  20.9792709  67.3358154  46.2591438
  20.4673462  66.5844345  46.5584641  21.8847561  67.0254745  46.2627983
  50.9212341  29.5888634  87.8265381  51.6741028  29.8858566  88.3376312
  50.7349854  30.3144627  87.2306747  55.5460320  44.8444633  72.3520660
  54.6972656  45.2076187  72.0991821  55.8126526  44.3136482  71.6014786
  69.8367920  35.1319923  45.6134453  70.2109375  35.6205101  44.8802338
  69.2386703  34.5066490  45.2042656   7.1931586  44.9434967  16.1676960
   7.6098261  44.5533218  16.9360600   6.2803798  44.6601486  16.2204170
  80.1483231  53.1331024  17.9235401  80.7557144  53.5383644  17.3046131
  80.3581696  52.1998329  17.8888054  29.6938629  61.8289108  85.5287323
  29.7675896  61.9811707  84.5866013  30.3648720  62.3914032  85.9154892
  69.3658447  62.1538773  70.1967392  69.9800110  61.4230156  70.2665558
  69.8705292  62.8517609  69.7790298  58.6424294  62.2952232  39.3619919
  59.5534515  62.5303078  39.5380707  58.4100418  62.8029099  38.5845070
  66.0080948  32.2202454  58.1654434  66.6876984  31.9886341  58.7984734
  66.3889542  32.9356461  57.6561508  30.8145695   2.8018835  72.4107590
  30.2501240   3.2536976  73.0380554  30.3436642   1.9948941  72.2027969
   9.3179560  31.0678577  20.0133419   9.1411657  31.3646812  20.9060192
   8.5588551  31.3603611  19.5089207  42.5784950   3.0119281  59.1887245
  43.0741653   2.6985734  59.9452629  42.6178093   2.2903283  58.5610466
  68.4233093  34.6388741  51.3412666  68.2831497  33.6987190  51.4539337
  69.3708420  34.7506752  51.4180946  43.4415474  57.0505486   9.1908970
  44.0665550  56.6410332   9.7891426  43.0363350  56.3167725   8.7287207
  22.9402370  33.3268929  75.3691483  22.8538532  34.1421509  74.8750534
  23.4606190  32.7573929  74.8024902  12.7604666  54.3645096  82.5628128
  12.1624069  54.3415833  83.3098297  12.5604267  55.1897964  82.1210938
  10.6542225  69.0217514  82.7245407  10.5277128  69.5971375  83.4789581
  11.0544147  69.5825577  82.0600281  29.0378838  50.8270416  83.5003586
  29.9544220  50.5517883  83.5209656  28.5423641  50.0083618  83.4789734
  64.9218140  29.9695530  56.9959946  65.3581085  29.1676197  57.2837257
  65.3432007  30.6655884  57.5001793  12.5267496  11.8523130  27.4556484
  12.4290533  11.6782846  26.5194855  13.1989298  11.2353592  27.7450848
  16.8768921  14.3464088  20.1739025  16.7426567  14.4004545  21.1201000
  16.5356159  15.1743670  19.8358974   8.0565777  44.2441559  31.6081562
   7.4359293  44.9536057  31.7746162   7.9314094  43.6398277  32.3398323
  77.9177246  27.7304993  58.4231529  78.6648254  27.1704845  58.6339951
  77.3611603  27.1872921  57.8651276  85.1822815  61.3707733   5.6795392
  85.9447708  61.3625984   6.2581353  84.4318771  61.4064941   6.2727103
  12.7367401  63.1951218   3.8923848  13.3682766  63.4354477   4.5703497
  12.0027380  63.7949524   4.0253305  35.7176361  52.9140854  20.4113693
  35.8031845  52.0554581  20.8257065  34.8996620  52.8610611  19.9170589
  37.6256676  10.1157446  68.0440598  37.7952766  11.0571089  68.0080414
  37.3853188   9.8812094  67.1477051  40.4640427  41.8679619  27.9192257
  40.7395973  40.9645424  27.7638721  39.6923218  41.7898979  28.4801006
  52.0523109  65.6409912  69.5510483  52.0059128  66.5830612  69.3880005
  51.2779427  65.2841949  69.1159897  72.7249222  47.2945900  70.1704102
  72.7372131  48.2107430  70.4474487  72.6025162  47.3328285  69.2218399
  82.5652466  61.3377457  56.2435188  83.4751740  61.0947723  56.4144745
  82.1614227  61.3789444  57.1103859   0.6435716  60.4219894  48.2783470
  -0.0701286  61.0374870  48.1109276   0.2537149  59.7493286  48.8367081
  54.9011002   3.4518600  33.3280182  54.7265587   4.2051864  32.7638702
  55.2303238   2.7782125  32.7330055  47.9636765  11.2681913  54.7651443
  48.5104294  10.6424932  55.2403259  48.4766197  12.0763044  54.7565613
  22.9263916   1.4107105  18.5151176  23.5917606   0.7421262  18.6779442
  22.8769646   1.9038590  19.3340168  41.6409683  31.5097141  62.2789192
  41.6510277  31.4257412  61.3254662  42.5401421  31.3185406  62.5456963
  47.9968338  30.5706978  79.6404037  48.5135155  29.8847809  80.0632401
  48.4991226  30.8015862  78.8589783  11.2151060  62.5451965  85.1206970
  10.3720942  62.1959076  84.8316345  11.5408106  61.8978920  85.7461166
  14.4797869  48.1230774  86.1097107  14.1416903  48.3372002  86.9792404
  15.3927441  48.4099846  86.1303864  73.9152603  13.2275257  24.3921814
  73.0633774  12.8612270  24.1548100  74.4635239  12.4632578  24.5697689
  27.0587196  70.2738647  28.8227234  27.4409122  69.9885330  29.6526318
  26.1195736  70.1204987  28.9262447   2.1080999  28.1485748  75.3892288
   3.0122564  27.8348923  75.4075623   1.6038790  27.4505024  75.8071899
  59.1346436  44.6658669  17.8202229  58.9700203  44.6669044  18.7631607
  60.0643806  44.4529686  17.7396412   4.8164234  43.3781433  44.5979462
   4.1967206  44.0549278  44.3256149   4.4252925  42.5590172  44.2941742
  83.9011536  32.7360382  81.4524841  84.6460876  32.1555443  81.2964783
  84.1251678  33.5430183  80.9889908  50.3227844  24.2128487  47.0508270
  51.0343895  24.7705193  47.3652458  50.6878700  23.7667103  46.2866898
  78.4004364  14.6038876  11.3296385  77.8676529  13.8891106  11.6781635
  79.2864685  14.2440710  11.2883635  54.4212341  36.2389526  58.5381165
  54.4910431  36.8472786  59.2738495  54.5813751  36.7793808  57.7644730
  49.1585655  44.1163826  66.9795227  49.2153320  43.5640030  66.1998444
  48.2780037  44.4900627  66.9447098  57.9708710   4.1277227   6.3768992
  57.1511459   4.5007381   6.0526409  58.5328598   4.8861365   6.5356755
  61.7568283  67.2557678  62.7137871  61.6814957  68.1439896  62.3650589
  60.8769798  66.8889389  62.6269608  61.5797958  41.9624634  34.3431358
  61.0251999  42.6358147  34.7371521  61.9833641  42.3947906  33.5905037
  57.5982513  46.1891251  66.9279556  57.8822517  46.8544960  67.5547409
  56.9369583  45.6826134  67.3995209  35.5730858  35.1132812   0.1375830
  36.2518387  35.7346840  -0.1258174  36.0554123  34.3312645   0.4059884
  25.2670994  50.0651817  63.7224007  26.2029839  49.9493256  63.5583038
  25.2271671  50.6534691  64.4764252  40.8636436  53.9785957  61.7247162
  40.4071350  54.8179779  61.6675301  40.9446068  53.8134956  62.6640854
  39.7382088   8.6303711  86.5616455  39.0800095   8.1091337  87.0213318
  40.2963486   7.9840522  86.1292267  10.3598394  70.6244202   1.1207756
   9.6653624  69.9657059   1.1264591  10.1465750  71.1909103   0.3792637
  35.9817543  46.9461823   9.9257231  35.6843681  46.7606468   9.0350094
  35.1834145  46.9277191  10.4535017  15.5105505  71.3666611  75.4941254
  15.2942600  71.0982742  74.6011429  16.4615993  71.4748306  75.4879990
  81.0123444  26.8279572  55.2605362  81.5230713  26.0189495  55.2904625
  80.1237030  26.5589504  55.4932976  74.0233459  66.0534897  38.1719055
  74.0753632  65.2176132  38.6354103  73.0967789  66.2908096  38.2092438
  44.4121284  34.4150887  62.1671638  45.0261574  35.0626717  61.8209839
  44.3998146  33.7206459  61.5085068  45.3128967  20.4711971  44.7641563
  44.6806526  21.1537094  44.5390472  45.2667694  20.4071941  45.7181015
  55.1725388   0.8974009  31.6341457  55.3079987   0.5614591  32.5201607
  55.2667923   0.1298990  31.0699749  62.1149673   1.1672673  29.2478085
  62.7172813   0.4838823  28.9538078  61.2718353   0.9241670  28.8653679
  79.6175537   1.0718690  20.7889175  79.8079910   1.8034943  20.2018166
  79.4774704   1.4804453  21.6431293  46.0244980  66.1155167  10.9070435
  46.8446045  66.5990372  11.0063763  46.2760468  65.3060684  10.4623451
  45.8392067  14.7428455  51.7566833  45.0081902  15.2150850  51.8079834
  45.8081017  14.1234283  52.4857826  39.6253128  71.3241501  48.8103943
  39.2964935  70.4370651  48.9559326  39.0885468  71.6641006  48.0944672
  83.8895721  21.5532436  41.4864693  83.9799194  21.5232773  42.4389229
  84.6044235  22.1195583  41.1957703  32.2632523  43.7445831  43.8746948
  32.7269440  44.2041283  43.1746635  32.6644249  44.0690498  44.6809273
  34.9592857  50.3958511  21.8931217  35.1393471  50.6649551  22.7938938
  34.2031822  49.8131523  21.9638290   5.3948250  14.7971048  55.1130981
   5.4451623  15.7208300  54.8672714   5.0462232  14.8051405  56.0045242
  59.8753090  10.2920008  36.2080231  60.2830353  10.1718407  35.3503799
  60.5965042  10.2015858  36.8308640  71.0292130  18.4414825  22.0384045
  71.9227066  18.7561035  21.9008827  71.0430984  18.0563374  22.9145908
  29.5363731  67.8140564   2.0232990  30.3514347  68.0615616   2.4599335
  28.8466167  68.1595764   2.5899427  71.6518326  58.8373909  23.6496372
  71.1170273  59.5708122  23.3458023  72.0672379  59.1591606  24.4497204
  80.1479111  21.9875526   9.1768780  79.2850189  22.2767811   8.8802395
  80.3714523  22.5896912   9.8865891  84.1858978   6.7308369  27.8334484
  83.2402802   6.8666582  27.8933754  84.5646057   7.5812240  28.0562763
  79.7565918  30.2309475   4.7356696  79.0536270  30.1679916   5.3822908
  80.5005646  29.7911034   5.1470909  30.9673157  38.3406944  42.1390419
  30.3832645  38.8995590  41.6264153  31.7820206  38.8392677  42.2015953
  49.2801514  67.7663422  17.1706543  49.5830879  67.4543915  18.0233860
  50.0669022  68.1114197  16.7485390  77.0194473  57.7493324  29.9608803
  77.3998413  58.2224312  30.7009544  76.1054764  58.0329475  29.9395676
  48.9875870  31.3118839  40.9743958  49.1739082  31.9799442  41.6341019
  48.8465309  31.8057079  40.1666374  15.9816694  33.8665504  64.6975632
  16.6867695  33.8620186  64.0502243  15.1811762  33.9488144  64.1792221
  67.9125137   2.2197282  27.3317585  67.3032913   1.8653836  26.6840553
  67.6489716   1.8119541  28.1566830   5.9007106  56.7542114  57.7594910
   5.9573259  57.7093849  57.7853661   6.6855226  56.4805336  57.2847252
   0.8954951  49.8237343  73.1335907   1.4741573  49.4800148  73.8142090
   0.9295375  49.1683159  72.4368134  59.0030861  54.0659103  16.4553604
  59.7048721  54.3419342  15.8658352  58.2373276  54.5611687  16.1645622
  16.6191063  42.2936325  24.5954571  17.4790802  41.8971558  24.7350311
  16.2272911  42.3292046  25.4680672  29.4748325   0.3283855  15.2275124
  29.4054146   0.9975703  15.9083977  29.7277985   0.8120841  14.4412069
  20.9328136  47.5992699  71.0179749  21.8718777  47.5879974  71.2030716
  20.7737045  46.7870483  70.5371323  68.2285080  11.0873442  64.5612793
  68.6409760  11.9506626  64.5333023  68.5662613  10.6353550  63.7880707
  85.4108429   8.3051825  61.3810158  85.7593689   8.2037535  62.2667198
  85.5989685   7.4701767  60.9525223  61.8218422  22.8551750  35.2687759
  62.6262093  22.6751881  35.7554283  61.2895889  22.0683479  35.3864136
  52.0427780  35.0444412  42.5264931  51.8457413  35.2017250  43.4498940
  52.9820328  34.8607101  42.5099297  13.3427935  61.5029793  13.8908882
  13.5152016  62.2736015  13.3499184  12.4297962  61.5997887  14.1616192
  28.4392529  32.1947060  19.8287697  28.3491440  31.9336033  20.7452507
  29.1054039  32.8819847  19.8399181  66.7357025   2.9105194  18.6979713
  67.4422836   2.5968831  18.1335201  66.2540970   3.5342989  18.1546593
  44.4016914  64.6483307  49.3725815  43.5443382  64.2232361  49.3507347
  44.4029655  65.2243652  48.6081161   9.6328983  42.8494263  55.2908478
   9.0471067  43.5869942  55.4613571  10.1768742  43.1398773  54.5587540
  44.5615158  46.8066483  25.4043903  45.0506668  46.1282005  25.8698711
  44.7308998  47.6073151  25.9008541  67.9633942  61.9592247  75.6832352
  68.7488480  61.4299850  75.5447083  68.1474838  62.7835274  75.2328262
  68.6194382   5.2296472  61.3867531  68.2002563   5.1651630  60.5286369
  68.3360519   4.4422960  61.8515167  55.7182083  15.4470568  35.9443970
  56.2916107  15.8953981  35.3227615  55.3928528  16.1431923  36.5151634
  60.1931229   2.5758293   5.4800053  60.2163467   3.1817687   4.7393770
  59.6686096   3.0265074   6.1418262  37.1124992  46.9579811  68.3971939
  36.9195671  46.2257729  68.9827499  37.5028000  46.5500755  67.6242065
  22.3325729   7.3242350  63.1732025  22.6043091   6.5098052  62.7500076
  23.1528072   7.7486930  63.4247589  74.2432556  36.5068741   7.1492152
  73.5946655  35.9493294   7.5789824  75.0292206  35.9630814   7.0964451
  76.1251678  36.7997246  19.8077354  76.4756699  36.6928139  20.6920128
  76.7200775  36.2964706  19.2518177  42.6638985  51.2134666  23.5689945
  42.6554718  51.9600563  24.1679611  41.9763680  50.6345291  23.8981857
  66.9447861  36.8911743  24.9550686  66.2115021  36.4630470  24.5132179
  67.7178345  36.4142990  24.6530552  86.2929153  30.9912834  49.0319443
  87.0420532  30.7356510  48.4937248  85.5330963  30.6419697  48.5662384
  12.2172689  53.1871262  50.0497551  12.5923119  53.3096848  50.9218521
  11.9142933  52.2791519  50.0447655  82.5841904  25.0307846  33.3824730
  82.3433151  25.9538918  33.3044701  83.5168610  25.0077095  33.1683922
   3.2935975  17.6248608   3.1570261   4.2078481  17.8999290   3.0883582
   2.9877975  17.5816116   2.2510195  29.9829884  34.6804237   8.1650124
  29.7287521  35.5523834   8.4671431  30.6333961  34.3861847   8.8026848
  58.8413582  37.9026794  63.3588905  58.5502853  38.3438339  62.5608368
  58.0342979  37.5899849  63.7676735  44.7437286  17.5545712  23.0063190
  44.4820633  16.6365490  23.0770054  45.6654472  17.5614586  23.2644215
   6.0705233   3.2770972  32.3300896   5.9415541   2.7960291  33.1475067
   5.6793990   4.1354089  32.4930458  77.4665222  55.9944305  77.4024124
  77.7187729  56.1303558  76.4891052  76.6554108  56.4925385  77.5035400
   0.7879949   1.6006207   7.8989339   0.0476044   1.1720157   8.3282957
   1.3793691   1.8315771   8.6152916  79.3704529  16.9432621   7.2876205
  79.3355179  17.8605881   7.5587702  79.0427322  16.4571934   8.0443029
  52.1562119  19.7081261  67.2711105  52.1985435  19.4562378  68.1936035
  51.3745270  19.2673302  66.9380951  31.2300243  70.2068253  30.6074142
  30.3612061  70.2599792  31.0056133  31.0633755  69.9382095  29.7039204
  84.1716614  16.7334614  43.7072105  85.1119156  16.9020882  43.6462135
  83.7676620  17.4489212  43.2161560  81.2003021  64.0638962  76.2341537
  81.1565857  64.9451904  76.6051483  81.3577728  63.4945107  76.9873047
  61.4892311  70.7573242  68.6137772  62.0457382  71.3283005  68.0841370
  62.0179062  69.9720764  68.7556076  49.5199890  27.2296886  37.1237602
  50.1804543  26.5436172  37.0272179  49.1172485  27.2979641  36.2580986
  31.9159203  53.5710068   1.7302959  32.1434479  53.0327682   0.9721643
  30.9596748  53.6116028   1.7168901  57.5886841  33.2751656   2.2704687
  56.7707825  32.7802963   2.2217374  57.6914024  33.6546097   1.3977141
  81.6250458  68.5144119   6.2349577  81.2655411  67.6692123   6.5044417
  82.5100555  68.3124237   5.9313474  15.1661139  57.9074249  31.9696808
  15.8489971  58.2918472  32.5193367  15.6430120  57.4871979  31.2539921
  35.8470230  31.7161369  87.2357407  34.9510155  31.9099045  86.9603271
  35.8491440  31.8825607  88.1783600  21.7491112  70.7010956  82.4971466
  20.9522247  70.2130585  82.2897110  21.5862522  71.5811005  82.1576004
  74.3919220  45.4341202  40.4388962  74.0451355  46.2414665  40.8185768
  74.5899582  44.8801270  41.1939507  19.2376614  63.7902451  71.1155930
  18.9650936  63.6048241  72.0142365  20.0865288  63.3565865  71.0284653
  26.5113888  60.0781326  85.0638351  25.9129314  59.3496132  85.2291870
  26.9515400  59.8456879  84.2462387  48.5384521   1.3481982  11.3460627
  48.8020058   0.4318564  11.4302588  47.8630333   1.3418111  10.6678267
  16.5516911  47.6041260  53.1422577  17.1823826  47.6019363  53.8622971
  16.3648491  48.5305367  52.9903297  44.2771111  68.0524902  60.9141388
  44.5958557  67.5605164  61.6708374  44.9661598  67.9542313  60.2570343
  61.8945541  56.7589455  69.9217072  61.6589584  57.5999413  70.3134384
  61.8833733  56.1422539  70.6536865  21.3989296  41.5013008   6.1963296
  20.8886471  41.9551353   6.8670602  21.7251358  42.2003899   5.6296744
  59.3412018  58.4074020   9.8288460  59.8544579  57.9304733  10.4810266
  59.8221359  59.2243118   9.6962166  26.9134750  13.0973549  79.7482300
  26.2024059  13.1657686  80.3853531  27.3846130  13.9270220  79.8251190
  85.5177460  44.9387512  71.9593353  85.4419708  44.1202354  72.4497681
  86.4598999  45.0627937  71.8444672  18.8627357  69.1641006   8.8939266
  18.0158443  69.4926376   9.1957006  19.4825764  69.8582153   9.1180468
  33.3223343  68.1004105  85.2637405  33.5438271  67.3602142  85.8287888
  34.1559067  68.3600082  84.8713226  39.5720482  68.0498123  88.7057800
  39.1945534  67.1791534  88.8309631  40.4266052  68.0042801  89.1346054
  31.6467648  41.7007217  80.5456009  31.0700397  42.1676064  79.9409180
  31.0546741  41.1754494  81.0838852  34.0994186  48.7916374  59.3334656
  34.5197258  47.9391785  59.4469757  33.1666641  48.5905685  59.2575150
  50.5901337  34.9000587  55.3438950  50.8617477  35.3980751  56.1148911
  49.6564369  34.7387657  55.4796524  14.8130989  62.8122101  42.1441650
  15.7313690  62.5539131  42.0648270  14.5049257  62.3625412  42.9309692
  84.6475601  21.7592907  54.4530487  85.3447037  21.1087227  54.5365829
  84.8290329  22.1995335  53.6226959  42.4518585  21.0641117  25.4928303
  42.3475113  20.8482838  26.4195251  42.6928711  20.2350788  25.0794907
  86.0823898  51.4132538  30.9851742  85.3931885  50.8315620  31.3059025
  86.7196503  50.8272209  30.5768871  61.1789703   3.9296277  29.7505856
  60.2920418   4.2004466  29.5134182  61.5316658   3.5382860  28.9514046
   0.0677754   6.4745860  35.7062988  -0.5609211   6.4493065  34.9849548
   0.5817716   5.6735749  35.6042137   3.2524619  31.6233463  74.4053268
   2.9084082  31.3910503  73.5428314   2.6671214  31.1847343  75.0227585
   9.8038197  32.8518677   5.1666565   9.8225517  33.1664467   4.2628207
  10.2898779  32.0275841   5.1434898  11.9406252  37.8724060  14.7338095
  11.2609100  37.3391724  15.1459751  12.5585918  38.0606003  15.4401598
   3.0158145  54.8377533  86.4895020   3.6739562  54.1573372  86.3476868
   3.1176765  55.0814590  87.4095383  20.8121166  57.2183189  78.3492661
  20.6064949  57.8260384  77.6388931  19.9648514  56.8541679  78.6057205
  76.2626801  30.4248199  18.9067688  76.1560822  30.1871166  19.8278370
  75.6756897  29.8323498  18.4370289  79.5461655  22.2757168  70.0595627
  80.1677246  22.9630985  70.2991562  78.7078552  22.7298527  69.9745560
  35.6384277   5.4404397  83.6660156  35.5223770   4.5825591  83.2575989
  34.8482933   5.5641847  84.1919479  22.0860081  30.4523983  65.2968750
  22.9712772  30.1231937  65.4522934  21.5508575  29.6645565  65.2012177
  21.6858387  31.9663906  24.5932922  21.2550564  32.7758636  24.3186703
  22.5583248  32.0149384  24.2025967  13.6372194  22.7859955  19.3077602
  13.5864954  22.4555645  18.4108353  14.4384966  23.3093300  19.3252544
  64.1793213  41.0883293   5.2860241  63.2440491  41.0674744   5.4886789
  64.5481644  41.7031059   5.9202471  68.4916534   4.7618418  51.9498596
  67.6331024   4.6516385  52.3584862  68.6190720   3.9614007  51.4406509
  43.2803535  39.3053894  57.3482590  42.7302399  38.7974892  56.7518997
  43.7736664  38.6473770  57.8380470  32.6025658  60.9527168   6.8275895
  32.4542236  61.8778725   6.6318531  33.0957756  60.6248932   6.0755882
  51.0896301  57.7574234  52.6018105  51.1408424  57.7583237  51.6459808
  50.2073555  58.0746193  52.7946968  18.6651955   2.8008528  64.5218048
  19.4761887   2.4438398  64.8838272  18.7987537   3.7486866  64.5240555
  85.3393555   2.1269548  12.4632206  85.5339279   1.2777852  12.8598118
  86.1592484   2.3893325  12.0446892  63.5019379  67.3825073   5.3548794
  63.2961388  67.5697250   6.2707548  62.6573486  67.1684875   4.9585276
  57.5222778  12.0706043  22.0578995  56.6818504  12.5254927  22.0031948
  57.2902565  11.1596336  22.2382603   6.5473800  63.5601883  15.8483515
   7.2932224  64.0825882  16.1433964   6.2105088  63.1518631  16.6458607
  79.8982162  43.0285110  37.8359070  80.3201675  43.3736343  38.6227226
  79.7097549  43.8029785  37.3058929   4.7212291  57.3846779  72.8483047
   4.9165668  58.0977287  73.4562759   5.5653648  57.1706963  72.4509659
  72.7753067  43.4719429  58.0184059  73.5527496  43.8523064  58.4272308
  72.2812958  43.0958824  58.7469406  27.1190300   2.8863316  73.5356445
  27.9392357   3.1681297  73.9407196  27.3776779   2.5574994  72.6747131
  84.0256805   3.3369868  80.5917587  84.2366714   2.4388714  80.8469086
  83.8920975   3.2918987  79.6449966   7.3725519  66.0354462  59.6221046
   6.9369245  66.5366592  58.9327240   7.3119998  66.5926514  60.3980484
  75.1063385  22.6769371  61.1321144  74.6088791  22.2442169  60.4381981
  74.8841019  22.1898403  61.9255714  32.7629013  51.8697968  49.7524223
  32.6332436  52.7862892  49.9962730  33.2100258  51.9078598  48.9069252
  21.0015793  20.5580139  10.7415018  21.7393837  20.7998810  10.1817017
  21.1020012  19.6156807  10.8762512  81.2585220  58.0981293  81.4748383
  81.7246094  57.2746582  81.6193695  80.7157440  57.9339752  80.7036819
   6.2281141  25.0350323  70.5958557   5.5562325  24.9725189  71.2747498
   5.8002601  25.5012512  69.8776550  -0.1035768   8.4209328  19.2735958
   0.7196766   8.3734970  18.7875557  -0.4313819   7.5216231  19.2778206
   2.5924671  42.0432014  32.9202805   3.5330336  42.1608162  32.7871170
   2.4238610  41.1396751  32.6529884  71.1478577  23.9945488  43.7012978
  70.6800995  23.4429760  44.3283539  72.0097046  24.1278763  44.0958633
  78.7545929  48.8999786  18.3782940  79.3612671  49.2022057  17.7023964
  78.0112991  49.5001411  18.3186855  35.1043358  63.7002220  35.2341385
  35.4857407  63.8930740  36.0906296  34.1886406  63.4931717  35.4208527
  52.9993401  69.3482056  21.5553799  52.7789230  68.4930801  21.9247169
  53.8885384  69.2412109  21.2175827  17.0207329  30.5212917  12.4169769
  17.4745808  30.2809029  11.6092224  17.4774895  31.3042908  12.7244148
  16.8615131  21.3946171   8.0263586  17.1852131  21.0827637   8.8714609
  15.9842424  21.7282829   8.2142258   1.5486388  61.4244499  25.9130936
   1.4243711  60.4866982  26.0594177   0.9302838  61.8441925  26.5111618
  62.3406448  30.3633633  57.4792862  63.1966858  30.6162491  57.1336327
  62.5131989  30.1133804  58.3870125  12.4874649  55.6940956  43.5501213
  12.7526817  55.4320221  44.4317131  12.9051399  56.5450745  43.4173889
  84.5660782  11.6669273  71.3850784  85.2144547  11.8943882  70.7186661
  84.8638916  10.8258972  71.7317886  25.3181458  42.1051216  23.2748699
  24.4806366  42.1270065  22.8119106  25.6053638  41.1945229  23.2074471
  30.2224483   4.2840338   4.9590888  29.8785610   4.6224294   4.1323714
  30.7812004   4.9865365   5.2915320  42.8674965  62.9860420  52.0513000
  43.6434555  63.4167252  52.4099503  42.1630630  63.6229019  52.1713753
  81.8242874  26.8240147  81.2611465  82.2315216  26.1726799  80.6900482
  82.1847229  26.6406479  82.1287308   4.6326985  22.7550831  77.7845383
   3.8711839  22.2282467  77.5421143   5.3711290  22.3181210  77.3602524
   7.6411271  34.7210312  68.7474442   8.5695696  34.7273521  68.5146637
   7.1839952  34.6739426  67.9077759  83.5240631  56.6146469  87.2239838
  82.8856812  56.2050896  87.8078995  83.3129044  56.2677612  86.3572006
  78.9313812  60.0524788  80.0553436  78.2369080  59.6322327  80.5626221
  79.3371811  59.3368149  79.5660782  12.3573418  65.8408508  29.4461365
  12.7041874  66.7325363  29.4750862  12.1851645  65.6808472  28.5182438
  48.2507095  44.1670952  22.3864117  48.2168655  43.4462509  21.7575474
  47.8919868  44.9165688  21.9111862  38.2950134  36.0686569  73.3764954
  39.2142563  35.8052292  73.4192734  38.2293549  36.5787201  72.5691833
  78.1627884  43.8901787  56.8990746  77.9528732  44.3945045  57.6850891
  79.0979767  43.7019310  56.9779396  76.5539017  65.9094391  78.1773224
  76.4989624  65.0427017  77.7748566  76.5594559  66.5170364  77.4377060
  77.6864624  70.5745468  35.1012459  78.3075790  71.2356415  34.7956505
  76.9382858  71.0786057  35.4212341  23.4102688  32.2242203  21.1420250
  23.8706608  31.7497940  21.8342609  23.6688747  31.7801208  20.3344784
  47.0215607  39.4488754  38.8160667  46.8289719  38.6893959  39.3659172
  46.6816711  40.1947861  39.3103561  14.8653975  52.8180351  13.9589233
  14.7105637  51.8799362  13.8483410  15.5178690  52.8724251  14.6571751
  67.2111511  33.5430298   9.7417030  66.4800644  34.0679932  10.0675240
  67.0107117  33.4014015   8.8165026  14.5975351  22.3123360   5.6794057
  15.1969614  23.0070820   5.4069209  14.9242344  21.5277519   5.2390332
   3.8589039  52.7098541  32.7023773   3.7935629  51.9670830  32.1021652
   4.6734848  52.5592957  33.1819839  47.9910927  10.1899157   3.9658980
  47.2226219   9.6697054   3.7312441  48.5602112   9.5788441   4.4337959
   1.7966356  10.0402107   5.4664817   0.9615367   9.6134825   5.6581697
   1.9957898  10.5426102   6.2565222   8.4233360  40.7171974  65.6790619
   8.3452225  40.4597321  64.7604599   7.5210953  40.8587952  65.9656754
  76.5131531  42.0043106  75.8539886  76.0830688  41.1673393  76.0293045
  76.0371704  42.6357918  76.3933411  69.4887848  43.9606018  11.7535801
  68.9586029  44.7522850  11.6620741  70.2086182  44.0815048  11.1343412
  73.0356903  71.5711212  81.1640396  73.4751511  71.8140411  81.9789658
  73.4652176  70.7597961  80.8929367   7.3458042  35.9850998  29.0911331
   8.0357428  35.4250374  28.7353992   7.5170317  36.0073738  30.0326309
  61.1890907  20.6328697  24.0294094  61.6044960  19.8543072  23.6585846
  60.7221069  21.0286636  23.2935390  86.4096909  65.2131805  62.3174820
  85.5309219  65.0874863  62.6755447  86.3055801  65.0807953  61.3752174
  77.8507004   5.5903702  32.8800049  77.2030716   4.9947414  32.5031281
  78.3703308   5.8838143  32.1316071  63.8085785   4.2707801   3.7267563
  63.1523628   4.3737960   4.4159613  63.3292542   4.4307961   2.9138141
  76.0158234  27.5987415   2.6739478  76.3304596  28.3301659   3.2052245
  75.0679398  27.5963116   2.8071229   7.0080061  69.9104843   3.6944780
   6.0516157  69.9495926   3.6900294   7.2814469  70.6781540   3.1923358
   2.2507908  55.5462151  68.3803101   1.8537375  56.2706261  67.8967667
   1.5199645  54.9599037  68.5761719  33.1886330  33.3124580  29.9249306
  32.2494049  33.1380043  29.9853134  33.5612640  32.5010490  29.5799866
   9.2219772   6.1585174   6.6927700  10.0144253   5.8194742   7.1090727
   8.6529675   6.4015365   7.4231133  50.0038223  70.0367661  20.1242180
  50.4641953  69.3118591  19.7013760  50.6956100  70.6549759  20.3597603
  23.3559475  38.1329155  65.7260818  23.5299149  39.0737381  65.6974945
  22.8958988  37.9994774  66.5548019  42.6067162  29.8169212  86.0409393
  42.5341911  30.5782700  86.6165390  42.1123657  30.0604172  85.2582779
  72.8003540  37.8145828  85.4853439  72.6713867  38.0712852  86.3984222
  73.6634674  38.1609001  85.2587967  74.9621658   2.1302166  40.8381844
  74.1186371   2.4313829  40.5005455  75.3831711   2.9223986  41.1720009
  16.1628284  65.3968353  34.2056618  16.2557449  66.1392059  34.8027191
  15.2419758  65.1455994  34.2773628  21.0251522  65.6500854   1.3578855
  21.4310398  66.4300079   0.9794647  20.1520271  65.6207199   0.9667038
  51.3894119  34.1542244  45.1471443  50.6679420  34.2452698  45.7695770
  52.1731682  34.3580246  45.6574669  32.7377396  69.9107819  49.3003922
  32.1444016  69.8843384  48.5497398  32.8988800  70.8430786  49.4455948
  56.0476532  37.0341797  64.1084976  56.2472763  36.8478661  65.0259247
  55.1590805  37.3897400  64.1241531  67.8709412   3.3777063  68.4730072
  68.3428955   3.2817271  69.3002167  68.0799332   4.2645092  68.1795197
  76.6797028  63.3594208  69.8509750  77.3933792  62.7267494  69.7696228
  76.7189941  63.8700867  69.0423279  67.4105682  10.9890947  71.5373154
  68.1589050  10.5145454  71.1753464  67.6228256  11.9122038  71.3992996
  63.8719978  10.4658422  46.6655884  64.5020447  10.9100227  47.2330208
  64.1400528  10.7034321  45.7779350  35.8498535  61.2278824  56.2765045
  35.3332176  61.0640793  57.0654831  36.6214180  61.7002449  56.5892296
  20.6504669  10.5800838  17.0641747  20.1829109  11.4146805  17.0314598
  20.0232468   9.9691687  17.4509678  41.1440315   2.7204683  13.0324097
  40.7387390   3.4509943  12.5651846  40.4498062   2.3838165  13.5989323
  41.5994759  28.7228146  57.4648247  41.2091179  28.8299618  56.5974312
  41.3720016  27.8290539  57.7211037   2.2160196  67.6874847  55.4576035
   1.6639688  67.2815857  56.1259804   3.0391626  67.8753586  55.9085693
  85.4096069  70.0693436  40.8995476  85.2473984  70.4861755  41.7458153
  85.5632553  70.7986145  40.2988892  36.8891449  51.3756790   3.0833762
  37.7899971  51.3893814   3.4066553  36.8575897  50.6220474   2.4940746
  41.7225494  36.4635429  41.4599075  40.8637657  36.7190056  41.1230659
  42.1348114  37.2887878  41.7153244  78.3704224  51.1423798  51.7955322
  79.1146393  51.2305908  51.2000580  78.2801285  50.1986847  51.9278908
  58.7966309  22.8632202  83.3793259  57.9950638  22.5537434  83.8011627
  58.5159569  23.6099854  82.8503647  76.8687744  42.4581642   6.0895715
  77.2049484  41.5620232   6.0773420  77.6106186  42.9960670   5.8128777
  11.7060823  68.4082565  77.3550644  11.3629761  67.7648849  77.9752121
  11.4183245  68.0924225  76.4985123  63.3135262  46.8190079  29.5294666
  63.1481934  47.3663406  28.7617912  63.3525620  45.9272232  29.1838818
  49.2719307  18.4209518  39.8463211  49.5253830  17.6123390  40.2914505
  49.7580948  19.1079025  40.3023643  30.2668667  69.0577774  55.9936905
  29.4719543  69.4453506  55.6274490  30.8123302  69.8080826  56.2297745
  31.5534286   9.3566942  71.7042618  32.4685326   9.2848444  71.9756622
  31.1339626   8.5766764  72.0673752  13.5004330  53.5444221  52.2878456
  14.1617384  52.9733200  52.6786766  13.9873734  54.3210144  52.0121117
  48.2871971  67.0168991  88.6232758  47.5740395  67.5912323  88.3443832
  48.2855225  67.0794601  89.5784225  44.9612770  50.3062706  11.0345230
  44.0392838  50.5025711  10.8683014  45.1193962  50.6314964  11.9207840
  48.9129486  52.4339256  20.9479408  48.3002357  52.9752045  20.4501152
  49.6085472  53.0375748  21.2086754  61.1554146  12.7523479  13.5437174
  61.1176109  13.5923042  14.0011845  62.0813942  12.6373320  13.3302641
  15.3133583  69.7340393  86.0417252  15.4035950  70.6737671  86.1998672
  15.7979622  69.5800171  85.2307663  40.5866508  61.0455208  15.6332579
  40.3568039  61.9220428  15.9416552  39.8961601  60.4807625  15.9803925
  45.9082260  71.7086716  82.8941956  45.5736046  70.8151245  82.9706116
  45.1315422  72.2415237  82.7237244  40.4056473   8.0123186  13.5702200
  41.0921631   7.8636389  14.2204704  39.6250191   8.2110968  14.0872641
  77.9440308  38.2777748  47.6661453  78.3071594  38.7652664  48.4055557
  77.7780228  38.9435005  46.9987030  66.6907043  66.3043747  12.6446142
  66.3519745  65.4837570  13.0024939  66.4971161  66.9570923  13.3174553
  84.3694153  33.3763542  34.3933678  84.9635010  32.6406898  34.5420036
  83.6623383  33.2446022  35.0249672  35.2688065  56.7184715  66.4048386
  35.8733940  57.2657585  65.9036560  35.8358841  56.1381683  66.9126816
  85.3543243  53.4551201   9.7411461  85.9503784  53.3199425  10.4778109
  85.1753616  52.5739021   9.4130306  50.7196350  54.2287750   2.5646622
  51.5212898  53.7079048   2.6122956  50.5420265  54.3098793   1.6275872
  77.3427200  15.3643560  71.7669830  76.9220123  15.2447615  72.6184082
  77.6678162  14.4941549  71.5361176  27.6840839  61.8126984  31.3948421
  28.5387287  62.1333389  31.1067371  27.0669422  62.1678200  30.7551098
  37.3708878   5.1819086  16.4839916  37.9567757   5.5530419  17.1437092
  36.5099411   5.1797037  16.9023170  70.3510818   5.8106837   4.8705020
  69.9136887   5.2745709   5.5319395  70.6657181   6.5757556   5.3520651
  65.5984955  15.0884924  55.6688652  66.3762360  15.5863867  55.9207726
  65.6624222  15.0097380  54.7170525  46.9358330  13.2087355  69.8957596
  46.1930923  13.4947443  70.4275208  46.8823509  12.2530651  69.9039307
  43.1548347  40.6877975  66.4737167  43.1791000  40.7579041  67.4280396
  44.0224571  40.9760857  66.1902466  72.3471909  44.8662338  86.5971222
  71.6741104  44.7997856  85.9197922  71.8839264  44.6813431  87.4140930
   1.5249364  51.7192726  51.1066208   1.4803529  50.7834892  50.9102745
   2.3233020  52.0176430  50.6709404  31.8042316  63.4434814   3.5107710
  31.9718323  63.2591286   4.4349761  31.2616749  64.2320328   3.5183945
  70.5957642  17.4310589  10.2575474  71.3182220  17.2271652   9.6636553
  70.9973297  17.4479866  11.1262741  79.1396866  41.8173103  74.6814041
  78.1987457  41.6744919  74.7836990  79.4724579  41.8717613  75.5772400
  28.1663837  42.8604202  11.6838846  27.6714592  42.8399811  12.5029469
  27.5000267  42.7961884  10.9997244  75.1776733  10.2132187   5.4787788
  75.2195816  10.4084644   4.5426407  76.0916367  10.1060667   5.7422500
  39.0564499   1.5945019  57.4573860  38.1209831   1.4124364  57.5467720
  39.4626884   1.1237078  58.1850929  28.2298470  49.7595711  51.6932716
  27.8228016  48.9025574  51.5665131  28.8522091  49.8384171  50.9703064
  73.3294296  48.7195816  82.6260986  73.3606949  49.6075287  82.9821854
  72.9515076  48.1924095  83.3300171  68.0050125  21.1326180   0.6647508
  67.8133392  21.0147095   1.5951213  67.5048981  21.9092083   0.4137144
  39.0549812  36.2055931  28.7827435  38.1073570  36.1133919  28.8814220
  39.3088036  35.4770317  28.2161732  37.9695244  65.3685989  72.1984177
  38.7156830  65.9647141  72.1342316  37.2578239  65.8267059  71.7513657
  76.4589386  52.9100533   7.2780204  75.8263702  53.1202126   6.5910535
  76.5935593  51.9656792   7.1988845  16.8832932  37.4423523  47.8675194
  17.4013252  37.1760139  48.6270828  16.2451420  38.0633850  48.2186775
  85.3652954   8.2382898   2.7464266  86.0306854   8.1898022   2.0600276
  84.6224442   8.6748199   2.3294833  17.1025200  64.8591232  19.8366585
  16.9584751  64.7705383  18.8945141  16.5382099  64.1928482  20.2289200
  49.8089218  66.5790939  57.5191841  49.5794411  66.5767899  58.4484634
  49.3475113  67.3371277  57.1604080  64.1103592  38.4817734  71.5389099
  64.4255905  38.1717415  72.3878784  63.1585503  38.3943481  71.5903549
  32.1521530  53.0228767  34.5922470  31.9756126  53.3160477  35.4861794
  31.6711674  53.6383095  34.0389595  41.6879997  40.7008400  35.6645470
  41.9637146  40.1111221  36.3662949  40.7733727  40.9000130  35.8645782
  73.5268402   5.3841505  41.9910927  72.9988251   4.6812415  41.6124763
  74.2322464   4.9314299  42.4533501   2.8735244  58.7926331  29.4324894
   3.4423988  58.0976181  29.1014767   3.3485057  59.1551094  30.1803112
  76.5611115  30.8169708  37.6045647  76.9777222  30.5681458  36.7794838
  76.6640015  30.0486412  38.1660919  49.5138168  33.1144600  42.6728096
  49.1656265  33.7038460  43.3418541  50.3004417  33.5550652  42.3513756
  53.7944374  15.3476582  82.4345551  53.6163635  14.8308649  83.2203369
  52.9297676  15.6136360  82.1217728   3.8078897  53.3308105  38.1102524
   4.7124319  53.0567055  37.9589195   3.8820014  54.2188911  38.4596138
   9.6962862   3.9205613   0.4708297  10.5524778   3.8166845   0.0556461
   9.8639603   4.4807873   1.2286320  62.9636192  31.9278183  19.2156982
  63.8260155  31.6235695  19.4984303  62.4622231  32.0136375  20.0265427
  54.3313179  30.9154472   4.3823633  54.2521248  31.7212658   4.8928699
  55.2730865  30.7491245   4.3419065  74.5747757  62.1182098  68.4969406
  75.2913055  62.3354797  69.0932770  74.8436432  62.4864006  67.6552887
  40.6530228  61.2029533  32.6995583  40.8320694  60.8426323  33.5680847
  41.4228745  61.7346687  32.4974785  56.9673729  32.0292320  45.5161324
  57.7959518  31.5556622  45.5897598  57.1692429  32.7796478  44.9572411
  56.7515907  25.2968292  54.2904510  56.5144348  26.0658531  53.7721901
  57.6788940  25.1559391  54.0994225  59.1190262  54.2757530   8.9702539
  59.7261391  54.7770386   8.4258642  58.2570190  54.6358109   8.7616110
  57.8174782  47.1716499  86.6028824  57.6157341  47.9003029  86.0158615
  57.7704391  46.3949203  86.0454636  54.2694244  14.0659428   2.4574440
  54.4870491  13.3874035   3.0965488  54.1597824  13.5921230   1.6330014
   3.3394947   8.0807009  58.9946289   3.6015105   7.5383744  58.2506790
   3.4684179   7.5181646  59.7582817  33.0360641  42.9907150  74.7909241
  33.1575089  42.3330116  74.1061554  33.8591309  43.4792404  74.8024826
  30.9621887  48.5564308  27.8262825  30.5321922  49.3335915  28.1831512
  31.8913174  48.7855110  27.8045044   4.3774881  60.2912292  78.9014816
   4.4238715  59.3355942  78.8724823   4.9307618  60.5354729  79.6434097
  18.9601822  42.7792320  56.5248566  18.8415165  42.0286026  55.9428749
  18.5838871  42.4976311  57.3587227  45.0444298  24.6898746  18.4946766
  44.9706268  23.7384739  18.5696526  45.9863892  24.8591328  18.5118923
  25.6885967  34.6445847  66.1508331  24.7363262  34.6194649  66.0571289
  25.9656029  33.7369232  66.0257416  77.6067734  26.3547935  27.0172939
  78.2034531  26.3176098  27.7648411  77.2903671  27.2581406  27.0080891
  69.7995605  33.9714241  10.5119419  68.9124832  33.7339478  10.2418737
  70.3555908  33.2905121  10.1332340   0.2116026  55.1247406  22.3722057
   0.7538639  55.1169586  21.5834560  -0.6022835  55.5481339  22.0991497
  69.4779587  37.4497910  83.1042786  68.7994766  37.7199707  82.4854965
  70.3011093  37.6721916  82.6693268  34.1185684  34.8043327  60.7798653
  33.4524994  34.1281929  60.6557083  33.8620605  35.2476006  61.5885353
  12.8760519  50.3937912  15.7415657  12.7210045  49.5581093  16.1818256
  12.0131559  50.8059196  15.6992197  41.1194725   1.1314347  69.7582321
  41.7410927   0.4853567  69.4229660  40.6232986   1.4085776  68.9880142
  70.7687531  59.7021790  70.6006699  70.5218582  59.6498604  71.5240021
  71.6999207  59.4807854  70.5888214  16.5537605  53.9134560  58.7033806
  15.7754879  54.4643517  58.7872429  16.3035164  53.0823364  59.1069260
   1.9004974  13.9100056   2.2170312   1.6788185  12.9788389   2.2213557
   2.5969169  13.9873905   1.5649244   1.5564466  43.4338837  87.3220596
   1.3594497  43.0722389  88.1861420   2.2607441  44.0624733  87.4803925
  30.0065327  12.6969786  85.4602661  30.9338379  12.4608526  85.4361954
  29.9011726  13.3268223  84.7472229  65.3955307  69.7355042  67.0563507
  65.3285522  68.7887268  67.1802979  65.4942017  70.0865402  67.9413757
  56.0243683  64.2812424  51.6711273  56.3823433  63.7652206  50.9487686
  55.1084862  64.4242172  51.4324913  42.1187286  14.4562159  77.3700562
  42.0244408  15.1514111  76.7188721  42.4134369  13.6962900  76.8681641
   5.7714658  71.2678223  72.7741928   4.9038153  71.3267441  73.1741257
   6.1199427  70.4305191  73.0803146  48.5403290  55.0529060  76.2989502
  48.5861588  55.0722084  75.3430405  49.2874489  54.5163269  76.5637665
  70.3256683  57.4475174  47.7202454  70.1006393  58.2734184  48.1485901
  70.8491821  57.7059708  46.9617195  23.1152802  54.1315193  66.5391769
  23.1267910  54.5602608  67.3949051  22.1865578  54.0645485  66.3173141
  13.2022676  51.8776779  47.1698914  12.7080851  52.1949692  47.9257622
  14.1167192  51.9099274  47.4509087  83.3115158  27.7914429  87.3869781
  82.8538361  27.0022125  87.0973511  82.6121826  28.3998642  87.6257019
  72.2805939  14.7085361  60.7220116  71.6424789  15.4140406  60.6156807
  73.1309738  15.1447239  60.6688957  38.6833992  40.9724426  61.2588539
  39.0816193  40.7252121  60.4242706  37.7465172  41.0268860  61.0703964
  48.5477371  26.2216644  54.0049095  48.2363358  26.9204388  53.4296074
  49.4354782  26.0368004  53.6983566  48.0742264   1.0007495  67.4409409
  48.5650940   1.6249510  67.9754105  47.2759628   0.8324955  67.9416428
  57.2866211  67.6678925   4.7852602  56.6305504  67.5412750   5.4706564
  57.4994164  66.7822952   4.4908595   3.7369182  27.8853683  83.2603149
   3.5793908  27.2155972  83.9257660   4.6846628  28.0188274  83.2744675
  27.6803093  69.2188339  61.6645927  26.8961849  69.2244110  62.2135468
  27.4760628  68.6022644  60.9614792  20.4716949  57.8863487  61.1947403
  19.9259911  57.1153107  61.3494568  20.0202866  58.5951424  61.6530800
   9.7775364  31.8322754  67.9731293   9.9545860  31.3420887  67.1702576
  10.4891024  32.4703255  68.0260391  19.3310318   9.0895920  84.2931595
  19.1510658   8.6292591  85.1128769  20.2822723   9.0440483  84.1967392
   3.0847881  71.2257767  39.3211098   3.7872961  71.1037292  39.9597168
   3.4290619  71.8746719  38.7073975  10.2478371  40.4099541  41.6706886
   9.8686495  41.2355690  41.9720345   9.6688480  39.7362289  42.0271912
  66.6448441  40.8163910   9.4893856  67.3651047  41.2392654   9.9569759
  66.1625824  40.3447342  10.1684952  71.4783249  62.4093819  85.1593781
  70.7949371  61.8245697  85.4867935  71.8044891  61.9780731  84.3695526
  69.7978134  55.8414917  80.2972183  68.9003983  56.0542336  80.5533752
  69.7072601  55.0950089  79.7049332  76.5341110   7.3887200  66.9883118
  76.9670944   8.0980120  67.4633560  75.6119232   7.6441555  66.9648361
  72.3870163  25.3100910  29.5711384  71.4986572  25.5712013  29.8137760
  72.2671280  24.5380325  29.0181599  39.9926987  41.7584305  38.9059448
  39.0773926  41.7461166  39.1857567  40.2439423  42.6810646  38.9490623
  11.6657162  63.5073471   7.1072702  11.9155512  62.9747124   7.8623295
  11.7612686  64.4106369   7.4092193  44.0172882  22.8091240  37.8784180
  44.4170074  21.9501820  38.0150757  43.8905258  22.8663712  36.9313774
  72.6385574  66.8399277  19.3376865  73.3619766  67.0629272  18.7518787
  71.8507690  67.0491714  18.8358536  54.8042107  24.2279701  16.9951134
  54.7501640  24.2766552  17.9495449  55.2048073  23.3762360  16.8210373
  29.1012402  60.5616875  63.5773430  29.5304394  61.2194710  63.0302238
  28.4212017  60.1897316  63.0157127  83.6703339  31.2965088  54.6392250
  83.3064346  30.4564533  54.3597260  83.0649185  31.6077881  55.3121376
  40.7425537  51.8638306  81.2896652  39.9910278  51.3301315  81.5477448
  40.6742630  52.6509018  81.8301163  15.6149616   3.6746581  76.6089783
  15.3147621   2.7668705  76.5638733  15.1667824   4.1114016  75.8846664
  45.7711105  32.2349014  21.4184704  46.7179184  32.3245316  21.3100719
  45.6686249  31.5216827  22.0485878   8.0571480  69.5965576  77.4228745
   8.6230011  69.8155289  78.1632080   7.2052412  69.4127045  77.8187103
  46.4065704  16.5641403  42.6509552  46.4386482  15.6200476  42.4963875
  45.7644577  16.6702442  43.3528557   7.9165907  44.8924217  55.9455681
   7.2947016  45.5130806  55.5657425   8.0456896  45.2012062  56.8423500
  66.2486420  41.5428925  76.0621109  66.3096008  41.8604317  76.9630508
  65.3965759  41.8534050  75.7558594  55.3897552   6.1580300  37.4365654
  55.4186440   6.0182772  36.4900627  55.5093880   7.1017313  37.5430946
  20.5233345  58.0674706  27.7720699  20.1107006  57.6487961  27.0166378
  21.4405308  57.7979012  27.7239628  23.7950783  71.0743256  48.5778732
  22.9408321  71.3002396  48.9459190  24.4106865  71.6517334  49.0293770
  17.9290619  39.0280685  59.4571228  17.6033669  38.4073753  60.1089592
  18.4516487  38.4944916  58.8584366  46.4539337  32.4230690  66.7520142
  46.6450195  32.5905190  65.8291550  45.6424294  31.9155693  66.7403259
  35.0134811   3.2992554  86.1525574  35.3422203   3.3198242  85.2538071
  35.7423439   3.6233582  86.6816559  32.5711784  27.8253117  64.1407471
  33.2648468  28.4813786  64.0727158  32.1329231  27.8510399  63.2901535
  54.0861816  27.1403694  50.8589172  53.1606598  26.8987598  50.8232880
  54.1149406  28.0307312  50.5086899  26.6948986  55.9623947  59.9536324
  27.4794483  56.3781471  59.5960503  26.8952789  55.0264359  59.9462013
  25.1316013  64.5413513  40.5589104  25.4326496  63.6327477  40.5523224
  24.6257915  64.6202164  41.3677139   9.9370766  55.2583084  44.5907669
  10.6134014  55.4738884  43.9486275  10.0488510  55.9088860  45.2839355
  61.9140472  57.1618423   4.9585667  62.5462303  56.5696983   4.5512061
  61.2078362  57.2365723   4.3167639  84.1023407  12.0909662   9.7667618
  84.4632263  12.2141047  10.6447306  84.2173462  12.9396744   9.3393278
  82.8522949  44.0405960  48.1574631  83.5041199  43.6830597  48.7603951
  82.0236511  43.6583862  48.4464188  80.5953674  11.8499107  50.9598541
  80.3567276  11.6027231  50.0664444  80.6709442  11.0176210  51.4265556
  61.9175797  59.7109604  48.1648254  62.4560318  59.7626038  48.9545326
  61.6943626  60.6205559  47.9672279  54.7412834   4.4332957  76.6117401
  54.3122826   3.9894459  75.8801727  55.4577827   4.9229450  76.2078857
  35.8598633  65.8909531  23.3541813  35.3893967  66.5437469  23.8726006
  36.1509476  66.3671265  22.5765190   5.3534646  58.0866318  36.9449387
   5.9097075  57.3478012  36.6980438   4.7153687  58.1538925  36.2346268
  63.5505447  53.9793129   6.6891351  63.4353714  53.4513664   5.8990464
  62.6762352  54.3192139   6.8796306   7.5001593  38.8346596  12.3141479
   7.9867473  39.5575256  11.9180021   7.9549866  38.6632462  13.1387577
  79.1114044  71.7622528  58.6778374  79.4675674  71.4723969  57.8379784
  79.7368698  71.4405289  59.3270836  66.9024506   2.5599837  81.2109146
  66.5593796   2.9887106  80.4268723  66.1231155   2.2937210  81.6987381
  10.1260996  69.7923813  48.1914787  10.8184824  70.3529282  48.5416489
   9.9333858  70.1601791  47.3290329  79.8469315  43.4642410   2.4883852
  80.6175156  43.5008545   3.0550327  80.1329498  43.8675728   1.6687814
  20.5519047  42.0213089  41.0530663  20.5388012  41.1932945  40.5730133
  21.4623775  42.3125305  41.0034790  57.9258766  28.9521656  48.8815613
  57.5335732  29.7232075  48.4718971  58.0107880  28.3192005  48.1685562
  83.5102081  27.1952362   4.1316390  84.0923843  27.7818489   3.6487460
  83.1793213  26.5879936   3.4698188  72.7427979  64.8989258  63.6322289
  72.9170227  65.0008469  64.5679016  71.7880020  64.9028931  63.5645638
  83.4311447  66.9993744  83.5762329  84.2060699  67.1674347  83.0400620
  82.8130112  67.6859131  83.3256302  75.4041977   4.4025393  76.2269592
  76.0797501   4.8259768  75.6972809  75.5095062   3.4682803  76.0472336
  77.2065582  20.5503883  39.4844627  76.5107651  21.2032871  39.4081116
  77.7601700  20.8724117  40.1958351  58.0823135   2.8634276  55.4711380
  58.3762398   1.9651685  55.3195763  58.2770805   3.0266745  56.3939857
  59.3216858   4.9244838  16.6633129  59.1035233   4.0095644  16.8409615
  59.7709808   5.2215681  17.4545803  51.3159752  26.6542797  50.8996086
  50.7802010  27.3983631  50.6247978  51.1196289  26.5485859  51.8304749
  74.1276779  17.8997059  50.4071426  73.8335876  17.2704010  51.0657158
  73.7903671  17.5559502  49.5799255  56.6994324   4.7821302  49.3421059
  56.3351631   5.5018568  49.8574066  57.2186775   5.2126527  48.6629410
  48.3829346  71.4214783  39.3142395  47.9683228  70.7610092  38.7591667
  48.0594635  71.2315521  40.1948776  82.4325562  33.0670128  43.6914101
  83.1246796  33.4231682  44.2484970  82.6985931  33.2982903  42.8014870
  73.4341049  28.5010853  19.4232407  73.6627655  28.6095982  20.3463745
  72.8854599  27.7169914  19.4029579  55.2045746  34.9767265  85.0791855
  54.3792000  34.7347031  84.6591797  55.0554695  34.8156281  86.0108795
  75.7852936  10.7349195  75.8565521  76.4352341  11.4144907  75.6776810
  75.5587921  10.8568592  76.7785339  12.2371511  13.3577776   3.3750429
  12.2316761  14.0834703   3.9991994  12.9920893  13.5312080   2.8127074
  35.8875313  49.9399376  10.9569559  36.4212112  49.5459366  10.2668972
  36.5112648  50.1487045  11.6523733  25.0281353  35.1848297  76.3924026
  25.2762165  34.3206024  76.7207336  25.2703876  35.1678925  75.4665222
  75.4225082   4.4047318  21.3365059  75.0449219   3.5886559  21.0083656
  76.1185226   4.6140814  20.7136288  54.5654602  19.1556149  15.7249393
  53.9941788  19.5287495  15.0536413  54.6287918  18.2281075  15.4970140
  28.7164898   5.9233732  15.8755245  29.5938473   6.3050480  15.9038305
  28.1972351   6.5533757  15.3758221   7.4911814  47.0179710  36.6671219
   7.3931389  47.5099716  37.4823227   7.0899386  47.5759544  36.0008698
  61.4982529  26.5004196   7.2755666  61.3146095  26.2934380   8.1918983
  62.3109550  26.0329494   7.0826550  12.0498037  49.6173973  46.2158852
  11.5531139  49.7112045  45.4030304  12.5345669  50.4388199  46.2965126
  10.2568121  71.2788925  59.5438271  10.8373117  71.8827133  59.0805244
  10.8392496  70.7762527  60.1133499  10.2987146  24.8363400  87.4873581
   9.5099945  25.3746777  87.4214401  10.6041670  24.7474403  86.5845718
  72.2034225   4.8000798  34.0003052  71.4955597   4.1638966  33.8981476
  72.9342728   4.2909598  34.3508492  23.0684719  41.1094627  65.4282532
  22.2308865  41.5649338  65.5132675  23.0345650  40.7056236  64.5610733
  44.9910278  40.6718979  30.4229584  45.4475098  39.9558601  30.8647156
  44.9340553  40.3921013  29.5093403  78.8758926  13.1682510  33.2867546
  79.0474243  12.5311794  32.5932465  79.6776199  13.1747551  33.8096542
  33.7101479  58.3305244  20.8750439  32.9372330  58.3524094  20.3108158
  33.6083603  59.0888367  21.4502220  19.8497677  17.8784924  88.0983887
  20.7598877  17.7470722  87.8326035  19.8990746  18.5059967  88.8195267
  54.4376640  17.6782150  79.6663513  55.1725006  18.0869656  80.1237030
  54.1651993  18.3299217  79.0203857  75.8206635  30.2540722  27.5806675
  75.7629700  30.6982460  28.4266052  75.0496902  29.6873722  27.5546284
  31.9135551  10.2645845  12.5162706  32.3263283  10.4453592  11.6717768
  31.5540447  11.1076078  12.7924862  20.5619183  26.0668259  16.3000927
  21.3033314  26.4762783  16.7460613  20.8434715  25.1650639  16.1458702
  40.2209511  36.3603363  86.0040131  40.1822739  35.5392838  85.5134964
  39.4284668  36.3561859  86.5408325  79.7509918  37.2376251  73.8935394
  79.4749603  38.0882912  73.5523529  78.9333267  36.7900925  74.1111908
  40.1041145  19.4974937  83.7365875  40.1103973  19.3565598  82.7898407
  40.2466164  20.4384022  83.8396225  59.0406151  54.3458595  80.7977982
  58.3490639  54.9715881  81.0133362  59.7765160  54.6011505  81.3541260
  52.5800667  60.0378685  20.9054432  52.8173981  59.3776588  21.5566177
  53.2809639  59.9954643  20.2549229  59.3935814   6.1095991  61.2449493
  58.8312836   6.8253255  61.5412407  58.8871956   5.3173056  61.4240456
  38.4051285  40.9932175  41.5262566  38.1273232  40.2167053  41.0403748
  38.2470016  40.7709274  42.4437637  70.4717865   9.8660164  51.2347107
  70.6630173   9.7132940  50.3093262  70.1024094   9.0384111  51.5427132
  18.1500092  52.4256210  82.8567352  18.1452579  52.3151817  81.9059372
  17.4390259  51.8646088  83.1665726   1.2065365  35.1888161  67.2928391
   2.1297202  35.0522499  67.5057144   1.1656116  36.0893898  66.9710922
  81.6359940  59.2623405   5.0063725  80.9449234  58.6401253   4.7794147
  81.5995789  59.3230476   5.9609513  59.4948769  27.6023712  24.1289062
  60.3388634  28.0522671  24.0899811  58.9353638  28.0901184  23.5245209
  80.6121140  37.3317528  52.4680977  80.0653839  36.6512032  52.8607445
  80.2716293  37.4290810  51.5788116  70.8991241  28.9706821   9.3241653
  70.7689209  29.5058804  10.1070080  71.5598755  28.3274803   9.5809374
  11.0292606  68.0334854  52.7866402  10.9501982  67.9700012  51.8348274
  10.1539106  67.8265686  53.1140213  70.1786575  71.5956421  23.3816299
  70.5660706  71.0311813  22.7126541  70.9186554  72.0870438  23.7382450
  61.0714836  20.4290276  44.5277977  61.0477791  21.3295879  44.8513107
  60.8944016  20.5065670  43.5903206  76.3515549  22.1921768  45.4358940
  76.1536255  21.2962494  45.1631889  76.9626923  22.5146713  44.7735176
  30.2513809  33.4773750  85.8771362  29.8787670  34.3010788  85.5626450
  30.9270782  33.2595749  85.2350845  59.7498093  35.8162003  46.0937004
  59.8825989  35.5972672  45.1713867  60.1135864  36.6967964  46.1856155
  12.7739239  59.5871162  60.4210281  12.3698645  60.2463684  59.8567963
  12.5146866  59.8390427  61.3073463  35.1383400  58.0317802  45.8350182
  34.5864906  57.7231979  45.1163597  35.7984390  58.5805473  45.4115143
   9.2820406  46.4784164  15.3767471   9.2083292  47.1519127  16.0529118
   8.4553175  45.9984474  15.4256401  19.1358871  52.5953140  87.0287552
  18.7468719  52.1145973  87.7593765  18.9281998  53.5123978  87.2077789
  16.9528160  51.4071083  73.0541763  16.6624489  52.3190613  73.0704422
  16.1814213  50.9053993  73.3177490  50.5698357  13.7486296  51.2211952
  50.4826508  14.6582870  51.5060692  49.7759933  13.3202391  51.5413933
  14.6553822  36.4738464  25.6612339  14.9745331  35.5714264  25.6654873
  14.3679600  36.6219978  24.7603054  32.4787865  58.1613197  57.4779701
  32.1472549  57.4692078  58.0500717  31.8990192  58.1409340  56.7165985
   1.4543495  57.8299294  19.8235874   1.0361416  58.5522041  20.2922630
   2.0822036  57.4696617  20.4498768  54.5016022  32.0376358  35.6905746
  54.6809540  31.1745872  35.3174667  54.8454628  32.6541901  35.0441589
   0.7509538  69.3372726  47.8149452   0.5355415  68.8196564  47.0391197
   0.9731969  70.2026138  47.4714050  54.6178741   9.7989817   6.6712818
  54.8186569  10.5565586   7.2208238  53.6845512   9.8847218   6.4768991
  60.7257309  22.3065071  14.9815559  60.7601929  21.3695717  15.1744194
  61.6336975  22.6000690  15.0567245  56.4053841  49.7784882  19.4643192
  57.0651970  49.1205559  19.6834278  55.6047630  49.4638443  19.8841228
  12.9807892  47.0595474  84.1025238  13.3565931  47.5682793  84.8209915
  13.6834106  46.4668388  83.8356018  82.1482391   5.9293284  29.8395138
  81.9119415   5.9652858  30.7663918  81.6571198   6.6467681  29.4391251
  52.6998367  40.4929886  40.3259659  53.2356834  40.5324821  39.5337906
  52.1772537  41.2945862  40.3018456  60.9886894  67.7673035  55.6470833
  60.5605049  67.7683182  54.7909927  61.9210243  67.6805344  55.4484596
  54.3582420  65.3802109  28.8938103  53.6989403  65.2857132  28.2063351
  55.1912727  65.2198181  28.4504490  86.5070877  63.8854065  71.2099304
  86.8979492  63.0796890  70.8718719  85.5904694  63.6591530  71.3675537
  45.0624847  24.9011459  45.1107903  45.9576607  24.9506474  45.4461174
  44.6272697  25.6718979  45.4751511  79.7813873  26.7080421  74.7678528
  80.4561768  26.8848038  75.4233322  79.1824722  27.4517746  74.8340988
  51.6497459  49.9524422  47.0550957  51.2953339  49.1184731  47.3635139
  52.4678497  49.7176933  46.6171112  79.5324173  70.4545517  43.2502975
  79.1471786  69.7598114  42.7163048  79.0273666  70.4397354  44.0632782
   6.1531029  50.5760193  16.0052509   6.1067686  49.7165794  15.5863829
   5.8416882  51.1856384  15.3362093   3.6590087  23.3166771  15.9548292
   3.6174977  24.2710896  15.8947716   3.3136685  23.1161861  16.8247566
  69.5121002  37.3782539  31.3363972  69.0183868  38.1458397  31.0477867
  69.8313599  36.9803886  30.5264549  63.1080856  68.4589233  34.4901085
  62.3447266  68.2903595  35.0424652  63.6344872  67.6624756  34.5594902
  44.0342827  59.8847961  85.5606918  44.7464752  60.2913513  85.0670013
  43.2369232  60.2126656  85.1448135  63.1455116  29.9656258   8.8022594
  63.2922363  30.1448288   9.7310162  64.0205612  29.9792862   8.4145355
   7.4048705  57.1901550  67.4134064   6.8713574  57.9490166  67.6494675
   6.7701459  56.5233727  67.1511917  84.1461487  20.9657745   1.3429483
  85.0705795  21.2123890   1.3141087  83.9989700  20.6937599   2.2488067
  15.8669376  47.4843674  22.2596722  15.9356098  47.6215134  21.3148403
  16.7683716  47.5426598  22.5762978  75.9941635   6.9766202  34.7740746
  76.6064682   6.9263563  34.0400543  76.5481186   6.9182310  35.5525055
  73.8707352   9.2320404  12.2536469  73.1039124   9.2910891  11.6837988
  73.5149689   8.9953995  13.1101875  27.7495060  24.8923683   5.3670516
  27.2429428  25.1007156   4.5820565  27.5280952  23.9813766   5.5601945
  18.8915844  53.9688301  17.5557518  19.2783127  54.7718964  17.2068195
  18.5559101  54.2190094  18.4165440  60.7681770  54.6523209  11.5158339
  61.5634270  54.1642952  11.3021994  60.2981110  54.7199173  10.6847486
  47.2760887  63.3760376  15.1507416  46.8649483  62.5274467  14.9861488
  47.4368706  63.3852921  16.0942955  12.4137459  69.2163925  16.1383591
  11.7177801  69.2449112  16.7949028  13.0741549  69.8287125  16.4626274
  82.8692551  52.7397614  24.5517464  82.6697311  51.8167076  24.7079449
  83.2799530  53.0367661  25.3637505  38.0467758  55.8438835  67.4076157
  38.3840599  56.7291527  67.2705994  38.5380516  55.3021545  66.7900314
  82.5454636  52.1609573  59.4591331  82.5418701  51.5465088  60.1930771
  83.0962296  51.7413712  58.7981949  64.0300369   3.5616181  40.0635223
  64.3992233   2.6824567  40.1472397  64.6373978   4.1232924  40.5450401
  53.0497704  34.3795013  60.6502762  53.8037796  34.2045975  61.2133980
  53.4113846  34.8676910  59.9105835  69.1473160  25.3706226  12.3394003
  68.9285126  24.5931282  11.8257265  68.9410553  26.1053162  11.7615461
  31.3012009  55.9396591  71.3431320  30.9005871  56.6180153  70.7994690
  31.9530830  55.5305443  70.7740021  58.0345230  41.8119774  38.9520149
  57.6573296  41.3227081  39.6831627  57.6852989  41.3826675  38.1710091
  22.2134037  67.6504517  10.9781094  22.7128925  67.6563644  11.7946301
  21.3301315  67.9144287  11.2357445  27.0560627  51.7629585  16.3582268
  27.7415371  51.5937042  17.0045338  27.5146790  52.1715660  15.6240978
  74.5389099  53.2486839   0.1308302  74.1967392  53.8290215  -0.5491393
  73.7975998  53.1061134   0.7193556  39.1756668  59.1282806  35.9961243
  39.1437302  58.6295166  36.8124847  39.9924507  58.8535919  35.5794220
  83.6493454  52.6663818  21.9796104  83.6337204  53.5988274  21.7638874
  83.5711517  52.6398277  22.9332428  16.9750996  51.9782257  88.8590088
  16.6080170  52.8601875  88.7987976  17.2291412  51.8867073  89.7773285
  47.8834534   4.5519748  41.9307175  48.2901115   5.3311090  41.5514946
  48.2617798   3.8218250  41.4408379  11.6895008   8.7676020  19.4957581
  11.2820215   8.7219400  20.3606911  12.5444250   8.3529663  19.6115704
  13.6014700  35.6741486  87.8035355  14.4917526  35.3381844  87.9072495
  13.6986618  36.4389572  87.2362137  57.2113495   8.4144144   6.8888679
  57.5495453   8.9708281   7.5904803  56.3946037   8.8359327   6.6215138
  52.9387550  11.7159910  51.0713005  52.7905617  11.3885212  50.1841507
  52.2472382  11.3109646  51.5947418  37.9648132  35.6739616  16.5810490
  38.2194176  35.3872528  17.4580917  37.1757927  36.1977844  16.7199402
  71.2569275  52.7654114  37.4719086  70.7184143  52.8162346  38.2616310
  70.6947556  53.1064987  36.7763100  36.9377518   9.2423010  74.6726990
  37.1435051  10.0067549  75.2107620  35.9986725   9.3151379  74.5022278
   0.3932360  27.4939060  56.6506691   0.4026653  28.3745098  57.0257416
   0.4193352  27.6362877  55.7044792  42.9615021  63.8506393  67.9953156
  42.4462852  63.5698624  68.7515869  43.5941696  63.1449623  67.8611832
  55.3009872  28.5093346   1.8849714  56.0702133  29.0407143   2.0902958
  54.9043999  28.9437695   1.1298438  77.6252747  42.9088135  26.1261196
  77.6496353  42.6117058  25.2165222  76.7884445  43.3665543  26.2062378
  76.8121185  56.5252304  52.1514702  76.0348816  56.3603020  51.6176758
  77.1466064  55.6537247  52.3631935  50.4210014  57.0812302  33.0383034
  50.7101593  57.9846992  33.1662254  51.0369873  56.5577469  33.5509071
  42.0825996   6.1295595  77.1741638  42.6460190   5.8770957  76.4426956
  42.5423126   5.8118911  77.9513321  35.6085854  64.4915314  58.5355568
  35.1667938  64.6535110  57.7020035  35.5428085  63.5449333  58.6615067
  73.0982208  50.2061768  41.8563576  73.9209366  50.6939621  41.8942299
  72.6111984  50.6132355  41.1398735  38.5242882  11.7968407   1.8608522
  39.2266617  11.7723923   2.5107031  37.7409401  12.0210819   2.3631594
  84.1050415   4.0135903  74.7217636  83.8891373   4.7117500  75.3399811
  85.0167694   4.1794505  74.4820251  50.4853783   1.8251098  61.1767159
  50.3160172   2.5864930  61.7315521  51.4256096   1.8612263  61.0009537
   3.7898757  50.2545929  75.3934631   4.4317517  50.6182442  76.0033722
   3.0415425  50.0226707  75.9434128   5.6928258  48.7150269  45.2168083
   5.6201115  47.9992180  44.5854912   5.3618307  49.4816437  44.7488632
  13.4910507  12.6980715  72.4785004  13.5433159  12.8565292  73.4210434
  13.2750578  13.5519438  72.1036911  47.7192497  37.7299156   3.1429501
  47.1060257  37.0280685   2.9247835  48.2180557  37.3898468   3.8857663
   9.9408464  28.8429508  29.6565132   9.8933468  29.4255314  28.8985062
   9.5224905  28.0335560  29.3631039   8.1076260  57.6496124  29.9764633
   8.9126682  57.2522812  30.3085270   7.7837372  57.0266609  29.3258781
  46.8756638  68.3722458  30.7098446  47.8010902  68.5400620  30.8877583
  46.8699722  67.9462128  29.8527012  56.6906509  33.4158897  58.4395981
  57.6356964  33.5435104  58.3568993  56.5279465  32.5630989  58.0364799
  57.1207848  59.4346428  58.4874649  56.1770973  59.2814598  58.4403572
  57.3928413  59.0057526  59.2988052  59.1318932  65.3587723  67.3355942
  58.4403763  65.7857361  67.8413086  59.3241005  65.9726639  66.6267776
  18.1534500  52.6443214  55.7812881  17.4046936  52.1726913  56.1462021
  18.6871128  52.8721886  56.5425453  11.6181049  36.0451508  80.0037308
  11.7801256  36.9341087  79.6879272  12.4759703  35.7332649  80.2918701
  43.1491661  17.7028847  62.1891174  43.5055733  18.4249458  61.6715889
  42.6387901  17.1888351  61.5634155  63.5318031  48.6149864  36.7061577
  64.3063202  49.0700607  37.0367126  63.1433487  49.2266502  36.0806923
  13.4781952  13.7771025   8.3566713  14.2106218  13.9319267   8.9531727
  13.8598776  13.8582230   7.4826174  24.8150330  47.2206612  70.7625198
  25.1925564  46.6901932  70.0608673  24.5785084  48.0455208  70.3383865
   4.9912992   1.7735575  79.9248276   4.5002465   2.4581058  80.3792419
   5.1796298   2.1456695  79.0632629  67.0324554  20.2803822  26.1457348
  67.0203629  19.9405994  25.2509518  66.1088104  20.3728962  26.3793049
  51.0619774  51.7318153  56.0799103  50.5009460  51.0964775  55.6351433
  50.4614487  52.2435799  56.6218452   9.6185350  64.7379074  18.8298931
  10.1172171  65.3448563  18.2829380   9.0751228  64.2494431  18.2115593
  16.7584858  51.4410591  42.3057899  16.5605659  51.0643883  41.4483643
  16.6943035  50.7031860  42.9121399  84.3872223  13.8403854  14.8046751
  83.4729996  14.1228733  14.8299847  84.8367767  14.4294300  15.4106092
  84.2645340  10.8238211  31.5764847  83.5725021  11.3744583  31.2102432
  85.0698395  11.3183441  31.4243164  12.6013365   6.7458134  73.0493393
  12.9736252   7.0351686  72.2163239  11.8113260   6.2641416  72.8041687
  23.7064228   4.3772206   7.8347955  24.4430447   4.6694589   8.3716516
  23.2566643   5.1845336   7.5854053  75.2253723  43.9133186   3.9923987
  75.8755951  44.5211067   3.6402152  75.7227325  43.3445625   4.5800905
   3.1598663  70.4802094   9.5584764   3.5849009  71.3378372   9.5662661
   2.2232985  70.6772003   9.5420933  77.0579605  45.9405479  24.4991093
  77.6512833  46.2556419  25.1809559  76.3044052  45.5955429  24.9780293
  67.2482605  -0.1910944  74.6266937  67.7950745   0.3611705  75.1854706
  66.5863266   0.4045062  74.2755127  60.4297829  20.9851570   9.5286455
  60.9941902  21.6398220   9.9398499  60.2857742  21.3159943   8.6420565
  77.1548157  42.7467957  63.2929878  78.0318756  42.8551903  63.6607513
  76.9537125  41.8199463  63.4223785  76.7325745  49.9752235  29.6136856
  76.3771210  49.1354332  29.9046001  77.4791489  49.7411957  29.0622425
  58.9429626  42.3950615  73.6718063  59.7609062  42.2053795  74.1313934
  59.1659126  42.3175087  72.7441711  49.7668457  12.0776796  13.2390842
  48.9637375  11.6500025  13.5363083  49.4927902  12.9636545  13.0020752
  65.3451614  14.5949488  38.3068886  65.0986023  13.7993183  37.8352852
  64.7264557  14.6428490  39.0356827   1.1059127  70.0547714  73.2759247
   0.6640142  70.8968353  73.3849487   1.2494099  69.9799576  72.3325043
   8.8554144  68.0807343   4.8143106   8.6672316  68.4033127   5.6956511
   8.4751787  68.7386169   4.2322049  64.9741821  41.4544868  60.7007217
  65.3916092  40.6334343  60.9612122  65.7034683  42.0518379  60.5347633
   1.1421943   4.0525222  41.2740097   1.1308149   4.5034528  40.4297562
   0.9212883   3.1451688  41.0639076  47.6916733  55.3227119  14.5002670
  46.9411964  54.8594360  14.1282539  47.5399933  55.3045044  15.4451971
  66.7528610  55.4296837  52.4241562  66.4210358  55.4191666  51.5263710
  67.5398712  55.9729118  52.3822784  63.1371994  16.3105679  11.8665199
  62.7919083  16.0241928  12.7120943  62.5462990  15.9209166  11.2221298
  26.8902493   5.2380056  69.2621765  26.4433022   5.7167511  68.5641251
  26.5241890   5.5963650  70.0707626  23.1644897  42.2591476  60.2149734
  23.2920361  43.1523819  59.8954430  23.5749855  41.7060852  59.5502548
  51.2035065   6.6042771  83.4800491  51.6764565   7.1938286  84.0673981
  50.9066620   7.1664557  82.7644577  18.3888435   3.1469855  86.6174469
  18.3372250   2.2258654  86.8726044  18.7674694   3.5856977  87.3792953
  45.3287926  28.0519314  32.9972649  44.4869652  28.0731735  32.5421715
  45.2802582  27.2752018  33.5545540  59.1081238  65.3539124  51.2796936
  58.1598587  65.4834976  51.2645111  59.2317390  64.5480576  51.7812424
  78.0262604   1.3060988  31.4460468  78.5296478   1.3557911  30.6334152
  77.6503296   2.1803734  31.5487595  75.2790146  14.7385273  12.4919224
  75.7509384  15.4218702  12.0159349  75.0270081  14.1074753  11.8177586
  11.7030334  13.3849258  76.2792740  11.0856256  14.0235643  75.9226456
  11.2651558  12.5409489  76.1688232  82.1928635  60.6968384  79.9232559
  82.3164749  61.4889069  80.4463043  81.4278488  60.2711945  80.3103104
  24.2105999  50.9377747  76.1825104  24.9468594  50.6930885  76.7431183
  24.1800976  51.8932762  76.2306595  59.8156242  39.7313004  45.7831650
  60.3295326  39.1491890  45.2234497  59.1241531  40.0645599  45.2112923
  82.2205429  15.3274803  25.9813194  81.7844391  15.9435244  26.5699959
  81.7676163  14.4966812  26.1257591  45.8706284  17.6125031  74.8133850
  46.8108978  17.4337521  74.8265839  45.5507431  17.1549816  74.0358353
  40.6571007  43.0968933  44.8173180  41.3050232  42.6111565  45.3277016
  40.6082420  43.9522400  45.2441940   8.5242119  11.6305361   3.9781065
   8.9830980  12.3506603   3.5455835   8.0841446  12.0400133   4.7230234
  45.0228653  43.1505432  60.7521820  44.2539558  43.5778084  60.3747559
  45.5761452  42.9441757  59.9988403  79.8640594  36.9350967  24.8148670
  80.3004990  36.8610649  25.6635532  80.0986786  36.1297264  24.3538227
  28.3688202  57.1232834  48.6870155  27.5684586  57.1543503  49.2111206
  29.0724030  57.0313416  49.3294716  72.5804672  68.9326477  51.8157654
  73.1674957  68.9936371  52.5693665  72.8848267  68.1617889  51.3368454
  23.5622406  13.6233873  74.4657898  23.5065098  14.3398018  73.8334351
  23.6648197  14.0584631  75.3122101  51.1058998  57.9550667  65.8085022
  52.0265350  58.1464348  65.6295166  50.6981201  58.8149414  65.9113007
  58.8961296  33.3224411  81.1053467  58.3044968  33.9720497  80.7256012
  59.7280159  33.7853508  81.2049026  78.0698013  66.6993713  57.1003685
  77.2530365  66.7540894  56.6042404  78.4584885  67.5702744  57.0186310
  73.9279938  30.7418442   1.9619726  73.6128159  29.9278851   2.3548665
  74.2939987  30.4747849   1.1187937  19.8489933  64.2440567  66.7814865
  19.0643291  63.6968117  66.8139801  20.5602455  63.6319504  66.5926056
  53.9306030   3.3360648  43.6338615  53.3762016   4.1052608  43.5026817
  54.8134346   3.6378264  43.4198952  61.6799889  62.6552887  38.9839821
  62.6214790  62.4840965  38.9611626  61.5763474  63.4862938  38.5203819
  53.7424660  63.7187767   4.6745725  53.6983032  63.6496086   3.7208965
  54.0286827  62.8526192   4.9645352  57.7388458  67.0208817  32.0898018
  56.8963356  66.6017761  32.2651711  57.9417877  67.4968872  32.8950729
  42.5973434  28.8759518  28.3686237  42.6999474  28.2679749  29.1007919
  43.4267197  29.3526535  28.3351135  59.0043221  63.6841049  86.1508713
  58.6254158  63.2052994  85.4137115  59.9485054  63.6532326  85.9966125
  21.5817070  45.4904099   7.3760839  22.4182453  45.0367699   7.2729053
  21.0174332  44.8550301   7.8166718  76.7639160  24.1523380  13.8075657
  76.9965591  23.9379425  14.7109718  75.9296722  24.6162357  13.8787165
   8.6390781  22.4075756   3.9797275   7.8262506  22.3613682   4.4831238
   9.3316555  22.3762074   4.6397161   4.4580894   2.3346353  88.7995529
   4.0461788   2.8876286  89.4634476   3.9397333   1.5299442  88.8028793
  53.1331863  54.0594482  69.4374161  53.0434570  54.9870071  69.6560822
  53.8989258  54.0214653  68.8643188  30.2838707  40.2229958  40.2774963
  30.9872131  40.3607635  39.6430168  30.0076160  41.1056213  40.5242424
   7.1179266  41.2804413  70.0987320   7.8614936  41.4510384  70.6768570
   6.6615396  40.5443802  70.5063553  77.6894150  37.0265274  51.7063789
  77.4858170  36.3817482  51.0288544  77.2049255  36.7268066  52.4755821
   4.1744390  50.6887169  72.8470612   3.8487647  51.5864601  72.7820816
   4.0348425  50.4490051  73.7631836  10.4126606  66.1098709  58.9705048
   9.5315104  66.4444962  59.1373215  10.7813025  66.7158661  58.3277779
   6.7889552  41.9713554  56.9241753   6.7740817  41.6993179  56.0065651
   6.1263847  42.6598625  56.9806442  64.9288559  28.6817169  27.3750286
  64.0543976  29.0710049  27.3735313  64.9342422  28.1078300  28.1410942
  54.7787247  12.4451351  43.6836395  55.2912025  12.6853113  44.4555931
  55.3662796  12.6083279  42.9458199   5.0516734  36.5079155  73.9370499
   5.7978210  36.4362907  74.5323334   4.6645193  35.6325188  73.9318619
  41.1519089  13.2712488  86.7426758  41.5163651  12.4240170  86.4865417
  41.8881721  13.8791332  86.6746368  36.3850784  69.8525314   3.0225935
  36.8834343  70.1062088   3.7994597  36.0804558  68.9652176   3.2126465
  39.1026726  36.7622452  37.4249954  39.4018860  37.1264534  38.2580948
  39.8590813  36.8409729  36.8437195  43.4463501   1.2019835  82.3018417
  43.3556709   1.7686764  81.5357666  43.5685043   1.8065255  83.0338516
  17.2573338  63.6077194  56.6243248  17.5578995  63.5560837  55.7170067
  16.6906567  64.3788605  56.6453972  64.0910492  39.4788208  86.8264542
  63.2105103  39.5702133  87.1905136  64.4739075  40.3527412  86.9033432
   7.4540534  21.3209362  17.2949505   6.9206824  21.9545288  17.7748528
   6.8379774  20.6346931  17.0385246   0.8305675  69.3895493  32.4299850
   0.8532556  68.4564590  32.6422462   1.7513704  69.6435013  32.3678284
   3.7543299  65.9838257  46.0566101   3.9531758  66.3985367  46.8960762
   3.8088369  65.0448685  46.2344627  35.9434662  54.9619904  22.9604206
  36.2362862  54.4641266  22.1971245  35.3652344  54.3613892  23.4306965
  71.6699600  17.0010548  24.1432877  72.3079681  16.5605850  23.5818901
  71.8380508  16.6502895  25.0178967  60.5723419  46.9789658  27.0695934
  61.0499077  46.1752586  26.8641224  61.2545929  47.6135826  27.2887497
   6.9078579  48.8343391  31.0185909   7.8307142  49.0874100  31.0414753
   6.9105544  47.8998489  31.2258377  34.0941696  56.9687653   4.7803459
  34.5684738  56.7881279   5.5919108  33.4842186  56.2364616   4.6913342
  46.7807274  11.4542351  78.0044708  45.9208946  11.0454617  78.1035690
  46.9078064  11.5182924  77.0579071  31.0048180  40.4293213   9.4956827
  30.8343410  39.9007797   8.7160597  30.5836124  39.9482498  10.2079935
  59.0073776   6.4611588   6.6431155  59.4465103   6.9012408   5.9152942
  58.2191620   6.9818759   6.7973962   2.2666419  55.8206558   3.3137066
   1.8911767  55.2080803   3.9461696   3.2123556  55.7484627   3.4427245
  22.4836082  65.2014465  72.2136765  21.9708462  64.6843338  71.5924606
  23.1499500  65.6296844  71.6762466  19.8739452   3.9950197  40.5472069
  19.4929447   3.9142485  41.4215889  19.6010456   3.1981573  40.0924873
  79.8547058  32.4190102  13.1740370  79.4295349  33.2708282  13.0746956
  79.7227631  32.1913452  14.0943594  44.1123352  26.2270584  11.9628258
  45.0461426  26.2672634  12.1692724  43.9326210  25.2940540  11.8469048
   5.2270064  64.3459396  49.8543816   5.7513056  65.1418610  49.9430542
   5.2494030  64.1474380  48.9182587  31.7920704  49.0111732  18.7552891
  31.0410576  48.8569412  18.1822071  32.2642593  48.1785622  18.7606239
  68.8079605  22.5732708  38.9701271  68.0336227  23.0178185  38.6251488
  69.2636719  23.2450027  39.4774017  68.3546295  26.0884628  70.8895187
  69.1315689  25.5986710  70.6198807  68.0556717  26.5222664  70.0903473
  82.4742584  66.2322083  18.2794037  83.2671890  65.6960602  18.2855797
  82.7623215  67.0894470  18.5930824  76.9948578  28.7511616   5.7300453
  76.7711487  28.2556858   6.5178843  76.1544647  29.0700188   5.4009466
  32.2956886  20.0329361   1.6347646  33.0126038  19.5721245   1.1989729
  31.5169582  19.7946339   1.1317472  20.8290558  34.5743790   6.4203095
  20.0057735  34.5427589   6.9075847  20.8225689  35.4316216   5.9944863
  76.5353546  15.7920732  63.3662224  76.0023575  16.5865688  63.3357391
  77.1786346  15.9614716  64.0544968  29.6931629   5.6768861  50.5193253
  30.5365067   6.0950041  50.6930542  29.3586178   5.4435515  51.3852730
  59.7130318  37.3230057  77.4588852  59.7615967  37.0754700  76.5355225
  59.2383652  36.6034966  77.8750916  56.2607498   6.5037355  34.3467484
  56.0740929   7.0749469  33.6016922  56.7704582   5.7839088  33.9748917
  33.3548317  45.2544556  68.5370560  33.7272987  44.4388161  68.2020493
  32.7848396  44.9801788  69.2554626  81.1366043   0.3268954  47.4614067
  80.6487961   0.1804748  48.2718658  80.4899597   0.6868377  46.8543472
  35.9498177  63.3544159  14.7452297  35.9734001  63.5003662  13.7995157
  35.4299812  62.5577583  14.8517418   6.3565688  41.0449524  13.6607199
   6.7160892  40.1794281  13.4661837   6.3414702  41.4935799  12.8152981
  38.9099045  69.8175354  60.9331284  39.1358109  70.6518250  61.3444252
  39.6914177  69.2761917  61.0445518  73.0539474  24.6300869  62.5373154
  72.7979355  23.7487278  62.2654800  72.2321396  25.0511551  62.7894478
  59.5375290  69.9973373  38.5506668  58.8654251  70.5362091  38.9679527
  59.8421936  70.5240631  37.8117676  60.5280838  47.1681023  87.9309692
  59.9382782  47.4564323  87.2343826  60.0785904  47.4098511  88.7407455
  15.9872961  39.4770470  63.7141609  16.0771351  39.8140564  62.8227654
  16.1954956  40.2243652  64.2748718  45.3622131  28.1441479  29.3323326
  46.2563210  27.8527355  29.5108814  44.8198967  27.3755970  29.5096760
  45.8017273  19.6020088  41.5718613  45.9429474  20.0548878  42.4032402
  45.7008362  18.6816139  41.8146095  47.0208130  56.2504616  78.1547928
  47.7577782  55.9143715  77.6447372  47.0598106  57.1993790  78.0353546
  58.8735962  45.0848236  60.3474312  58.1384583  45.5149460  60.7842369
  59.5269661  45.7762604  60.2413368  37.6660690  21.1303577  10.6461048
  38.3869934  21.7549400  10.7260752  36.9124374  21.6651344  10.3965321
  48.7955055  61.1666565  62.7702942  49.4049606  60.8732376  62.0930176
  49.3400002  61.2811356  63.5491714  18.6738853  63.4554482  73.7628479
  19.3358002  64.1093063  73.9877167  17.8487587  63.8370743  74.0624466
  52.0238571  10.4733133   0.7709228  52.5010834   9.6544552   0.9049378
  51.3097305  10.4412851   1.4075003  67.6878510   7.2795691  62.7993011
  67.7382431   8.0646982  62.2540817  68.0811844   6.5904922  62.2638626
  17.6615829  62.4119568  34.0322418  18.2376366  62.0888710  34.7250710
  16.8644791  62.6803131  34.4892349  41.9309387  29.7297878  34.9910507
  41.2844505  30.2566795  35.4608078  41.4821434  28.9034538  34.8122063
  64.1019821  24.8181286  17.4713230  63.2723961  25.1639938  17.8005600
  64.7215042  25.5400085  17.5776711  11.4529018  50.0660477  84.4904327
  10.9489441  50.5386620  85.1529312  12.0450621  49.5071030  84.9935837
  33.8353806  39.8224869  54.6817741  34.2876358  38.9829826  54.7650146
  33.7779694  39.9710617  53.7379189  45.0010300  25.9284191  75.6404037
  45.3175697  26.7626476  75.9869537  45.5923996  25.2744350  76.0129852
  10.5064545  48.7830658  28.2606411   9.8435698  49.4651375  28.1529598
  10.0318775  47.9636421  28.1208191  52.5219498  60.3890572  11.5962086
  51.9775467  60.0834389  12.3217802  52.1565857  61.2432861  11.3659115
  17.9370232  24.0714226  81.4182663  17.2819672  23.5736904  80.9289856
  18.5821457  23.4177761  81.6880722  16.3525696   4.2486501  23.1385040
  16.2491417   3.2970595  23.1353359  16.1704483   4.5063581  24.0421925
  47.1943703  63.5355682  27.9762783  47.3326836  64.1203613  28.7213383
  46.9050636  62.7118759  28.3687897  72.4024582   9.7673006  86.7540665
  72.1881561   9.5109510  85.8570709  71.9253464   9.1439323  87.3017960
  73.4378204  16.0130844  72.5510406  73.7214661  15.0989504  72.5625687
  72.6295624  16.0195560  73.0637894  28.9837456  40.8821373  64.1671371
  29.6834621  41.3046608  64.6652374  29.3817978  40.0805550  63.8276558
  74.3817291  22.6296635  14.6790972  74.3042603  21.7481995  14.3140621
  75.1854706  22.6040936  15.1983080  32.2824707  70.2974777   7.6418872
  33.1852036  70.5570068   7.4576211  31.7571774  70.7980042   7.0175695
  75.6769028  20.3388023  43.4099274  75.9581223  19.6045551  42.8640099
  75.2386169  20.9347858  42.8025208  68.1148987  38.4479179  21.6864109
  67.7245331  38.1558075  22.5101318  68.9962234  38.0744743  21.6933250
  55.5696678  39.9794273  51.4911346  55.0798149  39.8641891  50.6768875
  55.0025330  39.6073761  52.1665382  39.9284248  67.4267578  28.0187893
  39.5468979  66.5760193  27.8022003  40.3276329  67.2981644  28.8792095
  14.0006466  60.1581306  19.1897030  13.1451139  59.8703194  18.8711720
  13.8639154  60.3300400  20.1213589   2.1741610  37.5807190  86.9604034
   2.6742282  36.7653847  86.9230957   1.3076787  37.3163261  87.2694931
  36.0554581  70.6088791  22.5664845  36.0319061  69.9909286  21.8358593
  36.6007118  70.1796036  23.2257671  41.2073059  46.7315865  56.4154510
  40.4865189  46.1229820  56.2532768  40.7823257  47.5244179  56.7426224
  45.4377213  45.7349548  36.6854362  46.0455322  45.9247704  35.9707527
  44.9811897  44.9410172  36.4070969  50.3805580  60.7004318  80.9089203
  50.4539108  61.6100616  80.6200867  51.2862015  60.4073105  81.0095291
  80.9557495  17.8822975  48.4800034  81.4262085  18.6934986  48.2880516
  80.7932281  17.4908466  47.6217613  37.1202507  60.1178627  27.3996906
  37.2176552  60.5069580  28.2688007  36.3359604  59.5733376  27.4675789
  44.1814842  48.9256554  41.6848640  44.6104622  48.2904358  41.1115341
  44.0219612  49.6848869  41.1241951   0.3052455  66.7674866  33.8103218
  -0.3817564  67.1059875  34.3844986   1.0501511  66.6155090  34.3919144
  76.4920654  22.6809464  29.7773685  76.6074371  23.4115086  29.1697502
  76.9602356  22.9504242  30.5675774  31.8251419  55.2439003   6.7954702
  31.5346546  55.3594398   5.8907604  32.0069542  56.1316299   7.1038723
  63.6407051  50.2187119  22.6854801  63.8173676  51.0949554  23.0278511
  63.0934410  49.8062782  23.3537865  47.6244736  66.1071320  36.1140785
  47.3364372  66.1206589  37.0268097  46.9396439  65.6218033  35.6539726
  45.1980934  18.7260818  83.3499298  45.5073853  18.3354855  84.1672440
  44.9747238  17.9778194  82.7963562  26.3496151  49.6634712  32.8476105
  25.9790440  48.8590660  32.4845123  25.6855011  49.9774017  33.4613113
  76.4557114   4.2318740  56.4183464  77.1276474   4.0076985  57.0621529
  75.6461563   4.2864218  56.9261665   4.6326289  64.8633423  41.1117821
   4.2906356  65.2590027  41.9134865   4.1545177  65.2995911  40.4065666
   4.0631561  32.7371216  23.3964005   3.8282084  32.6255188  24.3175831
   3.5820541  32.0461235  22.9411049  48.1275177  16.2413044  21.0775394
  47.8553467  15.8263025  20.2590485  48.8744240  16.7874317  20.8323708
  60.9299393  64.0490341   3.2678757  61.8843384  64.0812302   3.3335731
  60.6278915  64.7789154   3.8084996   4.8163524  55.6921692   3.9853337
   5.1231213  56.3493042   4.6100726   5.3084712  54.9019165   4.2079439
  34.7065544   6.5239234  80.5708313  33.8772240   6.4196472  80.1043854
  34.5068207   7.1336465  81.2811661   0.6249051  39.8457985  51.2980309
   0.8772539  40.2393150  50.4627457   0.4700818  38.9240608  51.0914803
   1.2559800  54.1237068  75.7241821   1.1869495  53.5110016  74.9920197
   0.7548249  53.7126694  76.4285355  78.5769043  34.7617378  30.7858791
  78.5596466  35.0046310  29.8601704  79.2458878  35.3285675  31.1697998
  57.8122101  53.0508003  30.5393829  58.5435219  52.9450340  29.9309196
  57.1711845  52.3974457  30.2592888  85.6169205   9.2988873  70.5267410
  86.5585556   9.2306786  70.6845627  85.5417480   9.8911963  69.7785721
  71.0640717   1.8664750  36.3110428  71.2151566   2.4319091  35.5536194
  70.3086472   1.3327717  36.0646172  33.7747574  48.6913490  47.1557350
  33.7908058  48.6654243  48.1124458  34.2421913  47.9005089  46.8868294
   4.5977650  59.7830620  31.4147511   4.1383867  59.3960838  32.1600380
   5.4919538  59.9181671  31.7284470  10.6407404  17.2762184  18.9577122
  10.7830915  18.0907784  19.4398518  11.3376703  17.2612381  18.3017445
  55.2926178  62.2631950  39.6216621  54.8190346  62.1521339  38.7972755
  55.4925385  61.3710518  39.9051056  81.8056183  37.4805527   6.7048516
  81.0152054  36.9825821   6.4962640  81.8826599  38.1165543   5.9936590
  60.7346954  60.5079117  31.7054100  61.4048653  60.8750000  32.2819099
  61.1637878  59.7640610  31.2825680  58.5359192  16.1900234  80.4315872
  58.8234520  16.4216537  81.3147125  57.5941162  16.0421333  80.5174103
  40.7187157  34.9456940  73.2626343  40.0883522  34.2273483  73.3160706
  41.3225708  34.6832619  72.5678558   1.6203579  48.2920685  85.5122986
   1.8802315  48.6773300  84.6754761   0.6787043  48.1437569  85.4255524
  38.4287376  55.1858025   7.1258917  38.9570694  55.9836540   7.1488609
  38.8500977  54.6385117   6.4632001  85.5422287  61.5798454  24.1207199
  86.0535965  61.7952805  23.3407726  85.3535309  62.4267693  24.5248775
  67.7015533  40.4608994  53.4605293  67.1086349  40.9177132  52.8638725
  67.3294144  39.5827980  53.5422821  76.2801361   9.4041929  32.4603882
  77.2148666   9.4452362  32.2583046  76.2294388   9.5897799  33.3980560
  54.5315132  17.5090885  37.2612000  55.2608223  18.0362949  37.5873795
  53.9457207  17.4195099  38.0129013  63.3011284  43.2670555  54.5762177
  63.1600952  42.3241768  54.4906425  62.9089584  43.4922981  55.4198380
  36.1907806  17.3332500  82.7895660  36.7319489  17.6654854  83.5057983
  35.8527260  18.1191902  82.3603287  66.2420502  67.4782944  60.2798042
  65.6308670  67.7981186  59.6161804  65.8817520  66.6336670  60.5500450
  18.0336227  22.6420345  11.9149790  18.9856319  22.6658497  11.8183250
  17.8626556  21.8376198  12.4047928  26.8365841  39.7885818  61.1812592
  26.4438210  40.4286537  61.7747841  26.4683361  39.9999313  60.3233795
  60.9430504  29.3982754  53.9279556  61.2528191  30.1770992  53.4656677
  61.6820946  29.1356583  54.4766617  70.2937698  70.6185837  33.0593987
  69.9381027  70.2140732  32.2681313  71.2396317  70.4890137  32.9902191
  53.9477234   1.5895143  76.8523788  54.2039909   1.6089317  77.7744293
  52.9953079   1.6840780  76.8664551  70.0860214  22.7610168  58.3038597
  69.3686905  22.1811218  58.5595818  70.4207077  23.1071701  59.1311378
  47.6123466   0.8080680  75.4847946  48.1259193   1.5019311  75.8983459
  47.1108284   0.4211372  76.2024231  64.1957397   6.8091598   2.0604651
  64.3166046   7.6880946   1.7011651  64.8940735   6.7172508   2.7086246
  48.9056664  66.1869049   2.7231443  48.6986809  65.3101807   3.0467877
  49.8550072  66.2604065   2.8210166  20.3527927  24.3069363  70.2585754
  19.9226303  24.9895000  69.7434998  20.5994244  23.6416512  69.6160736
   7.6972265  61.8345909  67.9076538   7.2451329  61.5848885  67.1017380
   7.0364003  61.7366409  68.5931778   6.6307325  15.3496637   1.6035303
   7.0913396  16.1115837   1.2520299   6.6886706  15.4519854   2.5534804
  76.3811417  26.6788349  31.2972336  77.2963562  26.8777084  31.4948978
  76.3497543  26.6195259  30.3423901  34.1313667  41.2734833  17.2445602
  33.9748688  40.3631363  16.9935360  33.3763008  41.7501907  16.8998089
  31.0900879  22.5386333  10.6390762  30.9729462  22.4356060  11.5834780
  30.5325546  23.2816639  10.4082222  75.5848465  68.8223267  48.1772232
  74.8877869  68.3761597  48.6581345  75.9922409  68.1335602  47.6519966
  40.6653671  52.3885994  75.5487137  40.5552979  53.1100578  76.1680832
  41.0527115  52.7953300  74.7736282  75.5405579  31.8644276  22.8743458
  76.3089447  32.3617706  22.5942345  75.8023224  31.4667110  23.7047253
  49.4418373  47.5966797  60.3250389  49.5055962  46.8143196  60.8728294
  50.3501396  47.8266602  60.1292610  79.4197769   9.2945185  46.3021545
  78.8124924   9.7420397  45.7129478  80.1707916   9.0752583  45.7506714
  80.1214066  37.2673531  34.7096558  79.1663818  37.2202682  34.6655922
  80.3038330  38.1590424  35.0060387  83.2271423  36.5138016  46.3605309
  82.5891342  36.8106461  47.0094261  83.6535950  37.3161354  46.0594826
  53.7486153  48.3249168  45.7532501  54.1469231  47.5287437  45.4015503
  54.0418015  49.0198708  45.1639214  48.4982300  68.3645020  40.7611008
  49.1784477  68.5400772  40.1109390  48.2799149  69.2254944  41.1178322
  46.8364487  56.1984711  32.5407715  46.7712936  56.1587296  31.5866203
  47.7680321  56.3369675  32.7116699  59.7614975   8.0949211  29.5826759
  60.2590828   8.8943787  29.7544479  60.2887421   7.6176457  28.9420071
  76.9724655   5.2483492   5.2491517  76.1204300   5.1983018   5.6824760
  77.1586227   4.3481874   4.9821620  12.9235373  27.6400928  79.8952866
  12.5321922  27.9739895  80.7024994  12.9785757  28.4044800  79.3217773
  23.1325493   7.1682873  33.0996552  23.2654514   6.6327405  33.8818054
  22.9002895   8.0330124  33.4380875  48.9662399  34.7734070  46.8357849
  48.0170212  34.8446426  46.7351074  49.0844421  34.1955490  47.5896683
   8.1261053  53.2790642  75.7547073   7.6578178  53.9305267  75.2326584
   8.2461624  52.5377884  75.1611328  15.4484653  55.8536682  29.9780159
  16.3177414  56.0328865  29.6195869  14.8492012  56.0311279  29.2530193
  54.8597260  70.4796371  40.7892532  55.0645065  70.6945114  41.6992683
  54.6931801  69.5370789  40.7973557  25.5985661  30.9352779  79.4706192
  26.4627590  30.7828522  79.8529358  25.3851147  30.1147499  79.0263138
  -0.0178529   8.0022240  64.0224686  -0.0247125   7.5806665  64.8818130
   0.8949203   7.9524732  63.7385635  39.2059708  44.9249077  85.4490509
  38.7388954  44.4220200  86.1162643  38.8736649  44.5863800  84.6176605
  47.0056648  57.9733047   7.6841178  47.8983650  57.6278915   7.6866522
  46.4837151  57.2911797   8.1066151  24.3820000  50.3338089  26.8667202
  23.5119591  50.1110420  26.5356121  24.9579372  50.2416725  26.1077480
  64.2214203  19.1733932  51.3364830  64.8794556  19.5495930  51.9210320
  64.4967880  18.2641563  51.2194595  21.9155235  30.4999733  68.1400452
  22.1492214  31.2858047  68.6340942  22.0486641  30.7444191  67.2242126
  50.2599411  43.4959106  47.1897850  50.9759140  43.8348198  46.6524200
  50.3286247  43.9795341  48.0129585  52.5309944  16.6635761  63.6829948
  53.4345360  16.3995190  63.8565521  52.0817642  16.5446682  64.5198212
  71.9989014  42.2623215  16.2536335  71.8056183  42.6550560  15.4023800
  72.7432022  42.7643814  16.5855865  65.8029251  71.1752167  71.1737061
  66.0350952  71.8275223  71.8346405  64.8864517  70.9665604  71.3547058
  28.6324825  66.4611435  77.5382538  27.7098465  66.2065582  77.5507965
  28.8082237  66.7685928  78.4275360  46.6711121  38.2079201  86.5487442
  46.2699318  38.9204025  86.0510941  45.9431305  37.8092766  87.0255585
  46.1115570  41.9455338  45.2279968  46.8515167  41.8141098  45.8208008
  45.9833260  42.8939667  45.2115860  57.4450607  48.5460358  51.4501495
  56.5922241  48.1231804  51.3496971  58.0789986  47.8565216  51.2528534
  20.0437355  50.2263489   7.2476411  20.4876919  51.0123711   7.5659189
  20.5088997  49.5022774   7.6666579  82.5729294   5.9222627  40.8983040
  83.4949570   5.7966127  40.6739998  82.5506973   6.7608747  41.3592453
  33.9397888  18.9260864   4.2855072  33.1186676  18.4967766   4.5256805
  33.6717529  19.7720528   3.9267199  78.0508804  37.3464661  63.4031677
  78.8788605  37.1214600  62.9788322  77.6830215  36.5046730  63.6720314
  15.1279688  62.3249016  52.7471199  15.3967066  61.6061020  53.3192520
  14.5268841  61.9209404  52.1212273  23.2026520  45.8666611  20.9028969
  23.9037781  46.1122856  20.2993050  22.4043636  45.9209137  20.3775158
  20.7806263  45.3158226  69.8670120  20.5800800  44.4122429  70.1110611
  20.9407673  45.2793083  68.9240112  55.3249969   5.2600060   5.2074509
  54.9978905   4.4931898   4.7371044  55.6079559   5.8610048   4.5182724
  59.2590942  14.0113869  73.4525070  59.2697563  13.2484035  72.8746033
  60.1791573  14.2621861  73.5350800  69.5758362  61.2928009   6.1331472
  70.0927582  61.9670639   5.6922503  68.6983414  61.6693001   6.2001104
  19.2315960   8.3832569  63.2885933  18.9366379   7.8398566  62.5578766
  18.8715534   9.2504759  63.1027641  63.9760628  40.3152657  33.2249298
  63.3841438  40.9566231  32.8318329  63.3961716  39.6804161  33.6455498
  43.8612480  38.4211998  34.0906258  42.9726257  38.4778290  34.4418755
  43.9188614  39.1450653  33.4669800  84.3103027  65.2145233  38.8311806
  84.2392197  66.1686249  38.8607063  84.8910141  65.0404205  38.0904427
  64.5397644  68.4336853  26.5680485  65.2427902  68.5979691  25.9395561
  64.7580643  67.5860367  26.9554405  11.6051941  60.9893074  75.2157516
  11.8079634  61.2057571  76.1258469  12.1770754  60.2491302  75.0124664
  64.7103806  37.7754745  54.7249908  64.6237564  38.7198715  54.8547630
  65.3645630  37.6879921  54.0317192   3.9299240  13.4505568  24.5705814
   3.8363149  12.7381916  23.9381218   4.3300848  13.0395041  25.3368301
  22.4105835  62.0620995  66.9230042  21.9023075  61.3405991  66.5524292
  22.8178806  61.6909332  67.7056808  28.5206776  52.0322685  55.1055794
  29.0173454  52.2952232  55.8804398  28.4186401  52.8393784  54.6012077
  23.1945763  11.5370684  79.3748627  22.9118023  12.0177727  78.5969162
  22.4772644  10.9293470  79.5547714  78.1613846   7.0527592  14.7228680
  77.6634674   7.7375660  14.2763758  78.4528961   6.4717999  14.0202045
  42.6378708  68.2867432  87.0777130  43.2632065  67.6231461  86.7864761
  42.0067863  68.3520889  86.3609848  54.9951248  43.9775963  53.8770294
  54.2796440  43.4563026  54.2411385  55.6588173  43.3337173  53.6297112
  45.0643921  65.4897995  62.4223557  44.9116859  65.7044296  63.3425980
  45.8009415  64.8786697  62.4379807  34.6040421  68.9824982  13.6995325
  33.9935112  68.2469940  13.7496719  35.3938293  68.6117706  13.3057890
  37.8279152  57.9958687  56.6303558  38.3288612  57.3850594  56.0898056
  36.9290161  57.9165115  56.3111191  24.0672798   1.4863271  65.6887512
  23.6487656   0.8030052  66.2123489  24.8275948   1.7523741  66.2058334
  27.9649239  31.0666885  76.4425812  28.5089855  31.4317894  75.7447815
  28.5870399  30.6460133  77.0360794  80.5408783  71.2987366   6.5884995
  79.8940964  71.2194366   5.8873458  80.8123779  70.3983383   6.7668624
   2.7577777  24.1816273  88.0923767   3.1244788  24.6943493  88.8127060
   3.3192022  24.3842678  87.3440628  65.3119431   6.0652575  36.6201210
  64.9045105   5.3868570  36.0815964  64.7100983   6.1809812  37.3553925
  83.7097702  52.1712608  35.7479782  82.7879715  52.1683006  35.4900894
  83.6924591  52.0729942  36.6999664  75.6803970  18.0663109  21.6811161
  75.1007690  18.7004910  22.1031132  76.1049805  17.6096210  22.4073353
  66.2882614  45.1042442  80.8046646  65.4610672  45.0715256  80.3241272
  66.5490341  46.0245934  80.7702026  75.9326401   7.0811992  30.8966103
  75.9601517   7.9024639  31.3875275  75.0602417   6.7275624  31.0700970
  79.8076935  45.0170021  68.6494904  79.8689804  45.3454132  69.5465012
  79.4976959  44.1164207  68.7448044  33.8085976  50.5748215  80.7087708
  34.2428169  50.0466385  81.3786316  32.9478149  50.7705841  81.0788574
  68.9229355  64.6768723  10.9956646  68.3558655  65.4464493  10.9465218
  68.9310913  64.3280640  10.1043196   7.3261681  43.9733047  65.9316101
   6.4974360  44.3789482  65.6768799   7.9321008  44.2038116  65.2273788
   3.1735866  19.5578423  77.1024933   3.4036751  20.0517406  76.3154984
   3.9103675  19.6980934  77.6972351  41.7539597   2.4604394  55.5606880
  41.3664131   1.8456521  54.9377289  42.4596367   1.9660455  55.9776115
  29.3675747  54.1333694  69.2075806  29.3234043  54.7973022  68.5194855
  29.8773632  54.5450935  69.9053116  58.3097725  50.3135681  66.7331848
  58.4856415  49.8242455  67.5368423  58.4429436  51.2296829  66.9765701
   3.5613706  63.5241928  68.5176468   2.8430593  64.1133575  68.7481918
   4.0030184  63.3484154  69.3484802  44.3468819   9.8285952  35.4491463
  43.5590744   9.8786669  35.9905205  44.9575005   9.3001871  35.9631157
  21.2464218  62.7490425  79.0961151  20.9112282  63.5847321  78.7713089
  20.5081329  62.1457100  79.0115433  39.6857758  47.4555054  37.8638496
  39.2488022  46.6660423  38.1832771  40.6164780  47.2928925  38.0174065
  84.6090393  68.6803055  65.3409271  85.3108749  68.1040344  65.0383224
  84.9966812  69.5554428  65.3310013  37.8036995  59.8035469   8.7864351
  38.6273804  59.9634628   8.3257723  37.8330078  60.3920288   9.5407972
  49.1276932  37.3029594   8.3785877  49.5696106  38.0228653   7.9283910
  49.5867386  37.2257538   9.2149782  83.5116806  54.4558601  29.4448547
  83.5066986  55.1601219  30.0931034  82.5867081  54.2971687  29.2564926
  19.1614571  41.2492218  26.0951481  20.0105267  41.0313301  25.7106533
  19.2176685  42.1857605  26.2848129  38.5767250  18.5572643  70.3205490
  38.5109940  19.4416809  70.6807098  37.6744041  18.3164673  70.1106186
  39.6711426  49.9643021  49.6459808  39.8984184  49.0743904  49.3764839
  39.8875389  49.9949722  50.5778961  21.4977608   2.7754173  89.1122818
  21.0228195   2.3322489  89.8153152  21.6636066   2.0893340  88.4657364
  60.5459633  30.0195560  72.7174683  61.4391251  29.6765804  72.6881561
  60.5255203  30.5677319  73.5018921  49.1527367  24.2102280   4.7478676
  49.8944321  24.1775074   4.1436758  48.5262375  24.7985134   4.3263788
  48.0596695  36.0541992  16.9523964  47.8441734  36.0130234  17.8841152
  47.2624054  36.3821754  16.5364285  74.2470627   0.3452422  44.9974976
  74.1321411   1.2749805  44.8010025  73.7790680  -0.1074750  44.2958908
  40.9993935  49.2178421  85.0370560  40.2910881  49.3669624  84.4107208
  41.0778999  50.0455475  85.5113678  62.7417717  28.5037880  23.2462578
  63.3722954  28.3148136  23.9412117  62.1593246  27.7442322  23.2382717
  85.4379272  26.5989628  19.9486122  85.5063705  26.0904636  20.7566814
  84.9145584  27.3631554  20.1901150  27.2153664  49.2143860  86.7936401
  26.6266689  49.4200401  87.5198441  26.8605061  49.7039948  86.0516205
  11.6895256  28.8654156  68.0254440  12.1509829  28.5243587  67.2593079
  11.1735106  28.1246643  68.3436356   4.6727395  64.7651978  13.9200735
   5.0758104  65.6312256  13.8587694   5.1470084  64.3298798  14.6284513
  73.1521301  29.7931385  44.9363785  72.7699127  29.5750065  45.7864189
  74.0948715  29.6864204  45.0631828  24.8123379  50.6541100  17.2485485
  24.1339455  51.2959900  17.0387630  25.6271687  51.0625992  16.9562798
  73.6799545  62.3008842  15.0197849  74.4759979  61.7695312  15.0339718
  73.3322449  62.1878166  14.1351671  13.3476315  54.0890160  29.2128448
  12.7060623  54.7136803  28.8745880  13.8212671  54.5742874  29.8884296
  86.4635620  12.8538933  75.9716949  87.0604477  13.5873127  75.8231735
  86.0896759  13.0207891  76.8368988   1.9851973  18.6774178  67.6977768
   1.5844309  17.8123207  67.7827759   2.9261634  18.5123978  67.7576370
  79.9125671  34.2106171  49.5812798  79.7742157  33.6526604  48.8159180
  80.5994568  33.7677155  50.0795364  70.1407623  71.0431061  65.5213928
  71.0625381  71.2673721  65.6489563  69.9565811  70.3924942  66.1988907
   3.8952651  70.6539459  50.8663864   3.8068345  70.7222595  49.9157295
   4.1994686  69.7586060  51.0149155  44.0981865  71.3071060  72.1487427
  43.8998718  72.1802750  71.8104019  43.3981400  71.1288986  72.7767563
  61.6982269  59.5784187  12.8093090  61.3185692  58.7176437  12.9858131
  61.9329262  59.5510445  11.8817320  37.0506783  48.5591202  16.6619415
  37.0816040  48.2517357  17.5679150  37.8197098  48.1660271  16.2492657
  73.2872925  15.9306917  52.4871025  73.3174667  14.9817524  52.6089058
  73.1829758  16.2824497  53.3711929  82.1944199  38.8175392  75.7508469
  81.6483536  38.7403717  76.5332031  82.2306213  37.9294853  75.3954849
  66.8323746  28.1220245  74.4302368  67.1506653  27.9607182  75.3184433
  65.9904938  28.5605297  74.5534439  61.0751152  60.3072128  84.7386856
  60.2892227  60.3576393  85.2828064  60.7879219  59.8570595  83.9442596
  10.5424862  45.7622643  58.1577988  10.7526875  45.2344246  58.9281464
  10.7658863  45.2014427  57.4149628  32.7902908   8.4114170  75.2778625
  33.2010460   9.1840210  74.8897934  32.9817924   8.4825726  76.2130051
  15.5375214  35.9755783  43.7918396  14.7347946  35.9703293  44.3132172
  15.2336607  35.9665070  42.8841972   0.2891309  13.5221653  10.8654375
   1.0839187  13.2469587  10.4084845   0.2529671  14.4695625  10.7336702
  69.8561859  13.9972191  47.1869812  68.9811707  13.7207222  46.9146881
  70.3974152  13.8828716  46.4058113  82.7050323  45.6462822  27.3355026
  83.5817108  45.9455528  27.0944576  82.4509811  46.2118263  28.0647812
   7.2333322  60.5541153  32.2655830   7.7233381  61.2011375  32.7730179
   7.9012184  60.0893440  31.7614536  75.6651001  17.4738960  73.6219330
  75.0548248  16.7825890  73.3652420  75.1350632  18.2709198  73.6287155
  71.2359085  31.2707253  37.1336708  71.3557739  31.5668373  38.0359917
  70.5562973  31.8453426  36.7812958  25.0075760  70.5867081  69.0304031
  24.6198635  70.3264771  68.1948242  25.6869640  71.2178116  68.7929840
  72.5299835  64.1187286  35.1718636  72.7808228  63.3981590  34.5938568
  73.3546829  64.5588837  35.3776855  42.1983948  45.3290863  24.8543491
  42.4319191  44.7307243  24.1446571  43.0258522  45.7418861  25.1016216
   2.6774304  23.8022957  18.7810345   2.0959735  23.7762871  19.5409451
   2.5326328  24.6675549  18.3981609  75.8056412  62.8926582  66.0054474
  76.6920319  63.2462616  66.0796890  75.3062897  63.5864830  65.5747757
  62.3742676  34.5360680  23.0884037  61.9205666  33.6952553  23.1468925
  62.3487854  34.7577362  22.1575737  83.7671051  67.0020676  46.4144249
  83.0918121  66.3272171  46.3452759  83.2795181  67.8185120  46.5235748
  11.2635469  66.0437775  37.8718414  11.3998232  65.5794830  37.0459518
  11.8515596  66.7974777  37.8227501  74.7299118  62.1325684  32.9477348
  74.4876633  62.9638367  32.5396423  73.9376755  61.8502731  33.4047890
  32.0326881  40.4325981  30.8868122  32.2519646  40.5231934  31.8141441
  31.4303112  41.1555099  30.7113991  32.9952126  71.7237854  83.0017242
  32.1418839  71.3263168  83.1751709  33.5514488  70.9910278  82.7373352
  49.5291290  70.1806412  29.2395172  49.1940689  70.5327911  30.0641098
  48.9261780  70.5130310  28.5745373  40.1741409  50.3351822   1.4919512
  39.5245972  50.3745956   0.7899724  40.9884262  50.0920525   1.0514324
  55.7416496  52.1349068  45.5266571  55.9966736  52.9616508  45.9361534
  56.5202026  51.8562393  45.0445442  26.7635002  41.2679939  19.5707512
  26.1628284  40.5459938  19.7555313  26.2437191  42.0570946  19.7236404
  69.7006073  25.6817455  30.4885330  69.3095093  26.5472584  30.3695202
  69.7400742  25.5652237  31.4377937  82.2486038  30.3879910  39.8615952
  81.2942200  30.3356075  39.9129448  82.4606857  31.2504807  40.2184792
  75.0343857  71.2601166  35.6085968  74.9370193  71.7862854  36.4022560
  74.2247391  71.4105453  35.1206703  84.1251068  64.4089508  31.5261898
  84.8016205  63.9348068  31.0427170  83.6137466  63.7238503  31.9567432
  21.7785358  56.6176300  64.9840240  20.8218498  56.6302490  65.0127335
  22.0161400  55.7456818  65.2994385  68.5012283  59.7885551   2.1247516
  69.1888733  59.8960381   1.4676170  67.7003555  59.6647682   1.6153289
  49.8880310  52.7902794  67.6700745  49.8296127  53.2260513  68.5203171
  49.6859703  53.4769897  67.0345917   1.2804298  30.2173214  47.1284447
   1.9291188  29.5141525  47.1598587   1.4844340  30.6956577  46.3248215
   5.1122246  67.3935471  76.9107437   4.7051616  66.6150436  77.2908325
   5.3452826  67.9345398  77.6652298  82.8359909  60.3620415  58.7438469
  83.7261810  60.5132256  58.4261436  82.8798752  59.5135155  59.1846542
  84.5267639  59.2605629   4.0486460  83.5980988  59.2554893   4.2805653
  84.9450989  59.7651024   4.7462616  71.8809433   8.5406981  10.7703705
  72.1178513   8.8573742   9.8986931  70.9299164   8.4372911  10.7373362
  34.0053215  14.3144703   2.9992139  33.8669167  15.1733694   2.6000047
  33.6955490  13.6918974   2.3414330  80.8351288  52.3790665  35.5837593
  80.4261703  53.2101250  35.8252487  80.1969528  51.9560928  35.0092506
   3.0671294  43.7399864  11.2105865   2.1273658  43.9216766  11.2186460
   3.2406428  43.3378792  12.0617237   1.0666983  71.3401642  12.7506609
   1.9479264  71.0605545  12.5026913   1.0068302  72.2445068  12.4427357
  45.3610420  51.7336998  45.6724586  46.1517220  51.3814125  46.0810585
  44.6547165  51.1746330  45.9961548  83.7060471  44.6547737   5.3007755
  84.5008163  44.5919418   5.8305221  83.0202789  44.8920708   5.9249887
  75.6963425  68.2074203  25.9186249  74.8211517  68.0995789  25.5462799
  76.2730637  67.7404556  25.3140049  32.2775459  40.8301544  26.7021294
  32.5834618  41.6446075  27.1012707  31.7286396  41.1132278  25.9708271
  43.3263092  60.6593361   9.9609585  43.0411339  60.4538078   9.0706425
  43.0300102  59.9152489  10.4851437  16.3923225  23.2370720  15.3154459
  16.3132610  22.7849197  16.1554108  15.7908468  23.9784393  15.3849688
  30.9920692  30.1975937  85.7397232  30.3046131  30.8076630  85.4724197
  30.7573891  29.3718319  85.3163147  84.2109985  62.6965446  61.3489952
  84.3164520  62.5509605  62.2891655  83.2774124  62.5590668  61.1885719
  23.0673122  43.3731537  41.5592842  23.6612186  42.7852478  41.0925140
  23.5710754  43.6704712  42.3169479  78.3033752  65.1542511  30.2665291
  78.1274643  65.2239456  29.3282166  78.1395950  66.0337753  30.6068954
  86.0319061  21.4936829  78.8152618  85.2489853  21.2746716  78.3099976
  85.7069626  21.6611977  79.6999054  26.6660309  57.6182022   2.1591806
  27.5607986  57.4610710   2.4607317  26.7228127  57.5692520   1.2049209
  78.4454727  28.3591938  48.4638863  77.5138931  28.5164089  48.6177711
  78.8914871  28.9464073  49.0741959  70.8909302  32.2189560  13.0560951
  70.8995972  31.2747765  13.2131901  70.0276031  32.5037079  13.3557930
   8.0887756   8.0246773  85.4183197   7.3597851   7.7332120  84.8707352
   8.5608635   7.2210236  85.6362762  67.7161331  67.1211853  52.4498062
  68.2080765  67.9253998  52.2841072  67.5046310  66.7859726  51.5785217
  55.9205666  13.4869947  87.9298553  56.3998108  12.8664274  87.3808060
  55.0745277  13.5888014  87.4938660   6.6312203  39.9974213  54.8201370
   6.7335749  39.1671562  54.3549309   5.7131395  40.0087433  55.0907516
  20.0980129  26.3364887  84.1438065  20.1211891  26.1675434  83.2019196
  19.5106449  27.0863609  84.2382584  14.3177710  64.6893463  51.5360947
  14.6127329  63.9421349  52.0565720  13.4279203  64.4589081  51.2690811
  50.8542824  11.0772076  75.0492935  50.8761330  11.4425154  74.1648178
  51.5281258  11.5623608  75.5255203   7.3618870  41.3695259  35.9376793
   7.0826387  42.2719727  35.7832642   7.6317401  41.0515633  35.0761032
  16.5222435  67.7696609  76.8868179  17.1166992  68.1874771  76.2636948
  17.0043182  67.7683563  77.7137604  52.6291351  32.6226730  78.8921204
  52.1562233  31.9139271  79.3283157  52.5911179  33.3521919  79.5106659
  54.7781372  33.8644867  81.3849716  55.6086540  33.5109406  81.7035294
  54.1334534  33.1894073  81.5968323  74.9435959  69.3553925  58.5089455
  74.9041824  68.4743195  58.8809395  74.0515137  69.5285416  58.2082100
  59.6265335  35.7482262  10.7167969  59.6429062  34.7920380  10.7576323
  59.0139885  36.0069084  11.4053488  17.0123940  44.0880013  70.6934586
  17.4202499  44.2683220  69.8464813  17.4612179  43.3055420  71.0136871
  25.3580437  69.5561218  63.1616173  24.9626637  70.1308823  62.5062103
  24.8769073  68.7327118  63.0795708  78.1882172  34.6713066  40.6571884
  78.0169830  33.8297005  40.2345619  78.9626083  34.5147820  41.1976013
   8.0090160  49.7611847  46.1454239   8.5434046  49.7672195  45.3513031
   7.3756843  49.0578194  46.0025864  48.2290459  28.2656860  71.8139038
  47.6539764  28.1216106  72.5654144  47.8715096  27.7026711  71.1273041
  81.6127243  28.5710239  31.6083755  82.5015335  28.4156704  31.2888184
  81.6341248  28.2884922  32.5226784  74.6765213  34.1737785  55.8636131
  75.4842758  34.6377945  56.0837250  74.0836716  34.8585701  55.5540619
  64.1162415  15.7574444  15.7354984  64.5802765  15.4380026  14.9616394
  64.8084335  15.9444561  16.3696270  50.6778831  11.1478348  87.0902710
  50.3656807  10.5712605  87.7876358  50.3384666  10.7559986  86.2855988
  77.5009537  14.2527847   1.9795603  78.0863800  14.2092543   1.2235067
  77.0458069  15.0892038   1.8822103  48.0934334  11.0686255  75.4641876
  47.8867607  10.8422279  74.5574036  49.0476189  11.1426163  75.4810715
  63.5558853  48.7854805  45.3008461  63.1280251  49.4975853  44.8253746
  63.9329758  48.2329597  44.6161880  73.7998886  19.6902637  22.9399948
  73.6157227  19.7253799  23.8786526  74.2299652  20.5237904  22.7489510
  65.6381454  60.1123428  30.1034660  65.9332581  60.9012642  29.6487694
  65.9207764  59.3915863  29.5405617   3.4317515  53.1931229  72.7391357
   2.6536837  53.6414337  72.4076920   4.1438503  53.8185844  72.6051865
  74.7273788  13.4729099  69.9364624  74.3737335  13.9050312  70.7139130
  75.3560791  12.8382835  70.2802887  31.8058796  52.8129044  10.0021143
  32.0656776  52.4102821  10.8307457  32.6024246  53.2356300   9.6810989
  74.6707458  19.5573349  32.2764511  75.1151581  19.3741550  33.1042061
  75.3608932  19.4980755  31.6158352   4.2393942  63.9272423  83.5411072
   4.3419166  63.4137688  82.7398224   3.2974339  63.9203873  83.7110977
  61.3888016  54.3373871  68.6352768  61.3694954  55.2812881  68.7930908
  61.8359108  54.2442932  67.7940521  56.4879341  38.2280655  69.5189056
  56.5722160  37.2972603  69.7256317  55.6890068  38.5020599  69.9693222
  36.4380341  53.8628082  45.2691345  35.5537224  54.0160751  44.9363632
  36.9147949  53.4985046  44.5233383  57.6907539  20.7923641  67.5771027
  58.1297722  20.0732460  67.1228256  57.6062546  21.4780807  66.9146118
  60.1819954  20.7274113  35.4560318  59.3450584  20.2673473  35.5201378
  60.6667213  20.4523716  36.2342491  56.9436607  51.3768463  69.8266220
  56.3578300  50.7847214  69.3550034  57.7802086  51.3020973  69.3674545
  30.8189316  30.6229897  69.3334503  30.0215054  30.3344479  69.7773895
  30.5195980  31.2834759  68.7086411  78.5998917   3.7620542  83.1360397
  78.5654984   4.2680030  82.3242188  77.7092438   3.8065164  83.4838867
  59.0135269  41.6619606  67.9371872  58.8682671  42.5639687  67.6516876
  59.4226151  41.2353668  67.1842575  78.6873245  56.2590179  11.6727676
  79.4396362  56.8316116  11.5230942  78.9808731  55.6500931  12.3504658
  62.7249069  27.2397900  84.7196121  63.4892311  27.4905262  85.2384262
  63.0908737  26.8965569  83.9044495  53.3954735  44.2184677  10.9740486
  52.4582062  44.3503189  10.8312902  53.4498329  43.7921677  11.8293514
  49.1094818   4.2257619   3.4563591  49.6928215   4.4138503   2.7211232
  49.6980515   4.0615649   4.1931467  16.4322319  67.3420639  53.2541351
  16.5933533  68.0996552  53.8165627  15.7815313  66.8251724  53.7291603
  60.1033516  44.0274239  46.0822144  60.3202515  43.6143646  45.2464104
  59.3789024  43.5051384  46.4266281  59.4684753  47.6861610   1.2274671
  59.2550774  48.6034775   1.0565081  59.5187416  47.6257172   2.1814334
  63.6020432  42.5911522  48.5217628  63.2759514  41.8958588  47.9503937
  64.3852158  42.9176407  48.0787315  68.3085938  42.8174248  16.3441257
  68.8630829  42.2112350  15.8528976  67.4164658  42.5959549  16.0771236
  66.6875610  37.7831192  18.7122192  66.8289490  37.9745674  19.6393604
  65.8869553  38.2579002  18.4889908  54.8581734  47.5566559  51.4327202
  54.2934036  46.8823395  51.8103065  54.4004784  47.8359833  50.6398010
  61.8260536  27.5694256   3.7115009  61.7497101  27.4310722   2.7674344
  61.2017593  26.9535122   4.0950909  61.1891327  26.8519478  46.8997383
  62.0439377  26.7762318  47.3237801  60.7276764  26.0503502  47.1461754
  36.0187607  58.1859512  73.5647812  36.4235878  57.6833572  72.8578568
  36.5304489  58.9937630  73.6077881   0.1225463  54.5319710  86.5153503
   0.0330650  53.8984604  85.8033905   1.0593858  54.5410767  86.7115173
  71.9379196  17.9577522  17.5465279  72.2956390  17.6270390  18.3704796
  72.1339569  17.2721405  16.9079857  50.6870232  37.0394630  10.7574110
  50.5777817  37.9311218  11.0879393  51.6272049  36.9566498  10.5979319
  83.1346893  66.6592712   3.6126623  82.3349991  66.1551208   3.4624608
  83.1889648  67.2514038   2.8625534  53.6106987  69.7913208  48.2909851
  54.2738037  69.4132843  47.7133942  54.1070862  70.3383408  48.8997574
  65.6513672  47.5411949  11.1361246  66.0807114  48.3132858  10.7676497
  64.8361969  47.8759270  11.5098724  83.2085571  44.5605659  64.6496658
  82.8693466  43.6730995  64.7661743  83.8787003  44.4737511  63.9717216
  81.4606781  28.5909290  27.4254112  82.2645035  28.0962696  27.5848064
  81.6065063  29.4313450  27.8597698  14.4793930  50.4514999  59.1009483
  14.4637690  50.0686836  59.9781227  13.5578337  50.5108948  58.8490906
  67.6753159  42.9666977   2.5772860  68.1449432  42.1995354   2.2499659
  67.8776855  42.9903831   3.5125492  64.0546951  34.1311493  87.7764587
  63.1621208  34.2499771  87.4517670  64.5131683  34.9294891  87.5143661
  69.7569351  50.0077858  70.7440262  69.3318100  50.6629944  70.1906738
  69.7945251  49.2218781  70.1988983   7.7486467  46.5071793  47.1166344
   6.9513416  46.3474007  46.6116524   7.6132927  47.3684120  47.5118446
  79.1489944  19.3902626  43.3362579  78.3218384  18.9088974  43.3547096
  79.8197098  18.7112217  43.2636642  55.5305824  38.8328323  47.3123970
  55.0381088  38.2447281  46.7398262  55.7208595  39.5953407  46.7659492
  20.6466579  53.1636200  29.9777298  19.9074039  53.0609283  29.3784046
  21.3099213  53.6237144  29.4633083  21.9160671  64.0083618  39.7490349
  21.2235737  64.6677475  39.7926025  22.6299210  64.4413071  39.2808418
  50.0036621  11.5116730  71.6837540  50.7606926  11.4921188  71.0983047
  49.6123734  12.3734341  71.5406036  80.7693253  20.3424301  68.8214111
  81.0356674  19.7767391  69.5461807  80.2310715  21.0195160  69.2313690
  48.5129929  27.8431511  82.8800659  47.7979584  28.0799389  82.2893982
  48.9439545  28.6742153  83.0796585  41.9127235   7.0096216  54.8730583
  41.8360252   7.7465181  55.4791374  42.8300438   7.0187340  54.5997963
  35.3544998  28.9175053   6.0794377  35.9764595  29.5923977   5.8075542
  34.5322609  29.1652069   5.6565914  41.7360878  39.1255150  54.7251892
  41.1013489  39.5610123  55.2941208  41.2658195  38.3676949  54.3776474
  42.5175285  53.7976036  82.8467941  42.6609612  54.1471748  81.9673309
  43.0773506  53.0224190  82.8906631  42.1690826   7.6733551  16.1310349
  41.8642006   8.0889692  16.9375973  42.9982948   7.2608185  16.3728104
   3.9448776  32.4279709  28.9557838   3.8044772  32.5097809  29.8990898
   4.7719336  31.9525623  28.8770733  75.7209015  25.4250050  86.9851456
  75.3991623  26.2554874  86.6344070  75.7697372  25.5671101  87.9304733
  58.5514450   6.5282097  10.0334692  57.6305237   6.5438023  10.2940292
  58.6352654   7.2469158   9.4068375  17.8350430  41.3702698   5.8641114
  18.2045059  40.9539528   6.6428356  18.0559101  40.7758179   5.1471176
  38.4896736  22.0062752  17.4392681  38.8537750  22.2663155  18.2854595
  39.1375084  22.3007431  16.7990913  61.5723305  29.9091644  81.7194901
  61.7980309  30.4994240  81.0005417  61.7485924  29.0336933  81.3749390
  76.7631683   8.2692394  43.8696594  76.6604233   9.0644064  44.3925209
  77.5273666   8.4413748  43.3195686  11.6841917  59.6786423  85.7668304
  11.0680437  59.7818756  86.4920425  12.2974682  59.0079041  86.0672226
  12.7625284   3.7152488  60.7316246  12.8481951   3.7737124  61.6831894
  13.4914694   4.2351494  60.3931274  12.2095051  27.4789600  65.5125732
  11.6796598  26.8212566  65.0621033  13.0160074  27.0187168  65.7448654
  12.1479206  53.5865517  75.0999298  11.2602339  53.4156189  75.4146118
  12.6874628  52.9261322  75.5346375  75.8194427  37.4998055  60.7654419
  75.2209930  37.8104515  60.0860367  76.5112534  38.1606522  60.7956734
  14.5893679  37.0221024  10.8538809  13.7617435  36.7197723  10.4798937
  14.4910851  36.8840866  11.7959661  46.9788437  22.3662643  36.9754944
  47.0635834  22.5861950  37.9032249  46.7849998  23.2006207  36.5482864
  57.6741638   7.9785223  62.1658897  56.9850464   7.8337159  61.5175209
  57.4233475   7.4293880  62.9087067  80.2175064  18.7252560  21.5282307
  80.3222198  18.8838444  20.5900860  80.3658142  19.5796108  21.9335861
  15.1087961  69.0285263  73.3835983  15.3054285  68.1488037  73.0616379
  14.6175861  68.8834076  74.1922226  54.8316765  11.1081848  13.2946348
  54.0188904  10.8433876  13.7253256  54.8457832  10.6057367  12.4800320
  45.7006111  38.9800339   9.9547844  44.7511101  39.0825920  10.0192747
  45.8209038  38.1801376   9.4429979  10.1851034  54.2291374  59.9497414
   9.8813066  53.6599197  59.2426834  10.6943512  53.6525612  60.5193558
  74.3357697  53.1620941  54.7412567  74.2600937  52.4786911  54.0753212
  75.2424316  53.1035881  55.0425415  33.2905579  41.8185234   0.6632567
  33.4585495  42.7486610   0.8144202  33.7222824  41.3753700   1.3936423
  29.2248764  29.0133324   5.0111737  28.5276051  29.6529617   4.8665466
  29.5366001  28.7960701   4.1326194  75.2619858  33.0843849  69.9763184
  75.9064789  33.7902679  69.9254150  74.8498230  33.0736198  69.1124649
  61.0937386  13.9241314  43.6271935  61.8117409  13.7526894  43.0178413
  60.7762566  14.7939558  43.3846169  34.7840004  62.4947395  17.7191219
  34.2381134  61.7583694  17.9948082  35.6813011  62.1968536  17.8686008
  51.7260094  20.1550484  53.0351562  51.9591942  19.9175262  52.1376915
  52.5624161  20.3572083  53.4544258   6.8393245  32.0041885  31.0899658
   6.0542712  32.2954216  31.5537586   6.5079575  31.4539604  30.3802624
  66.3929672   6.5465126  23.2311802  66.1925278   5.6505790  23.5020275
  66.8244705   6.4492464  22.3823128  78.9353943  30.3271141  36.1746368
  79.0691299  30.4580383  35.2359123  79.8195801  30.2720718  36.5371513
  83.6864853  14.7459211  18.9293346  84.1725464  15.2978745  19.5419693
  83.9893723  15.0234375  18.0647697  80.4231720  39.0775146  77.6888428
  80.3178635  40.0288429  77.6997299  79.5289841  38.7379570  77.6520081
  76.8529816  66.5003891  80.6602020  76.4826965  66.2340851  79.8186569
  76.1091309  66.4920273  81.2625732  65.4689941  32.6179962  23.0292168
  64.5455933  32.3670120  23.0531883  65.9417877  31.8116894  23.2355366
  35.0723267  66.0128479  81.2617798  34.6542969  65.1724014  81.4492264
  34.4305420  66.4869156  80.7330093  60.4993973  56.3488045  53.1072273
  60.4851837  57.1396370  52.5681381  61.2767448  56.4476089  53.6569557
  43.2359886  60.2815895  44.0184021  43.1184731  60.9684753  44.6746101
  43.9947548  59.7849541  44.3247681  44.4345932  53.7684784  17.5496140
  44.8556480  53.0601730  18.0366955  43.7816963  54.1202049  18.1547985
  66.7622070  37.9146805  82.3390350  65.9570465  37.5310402  82.6865463
  66.5088730  38.2735977  81.4886017  77.3404694  12.0738821   9.9749184
  77.5193024  12.4684620  10.8284740  77.6436462  11.1700211  10.0606365
  59.6508369  55.9977798  23.4059792  60.4120178  56.4759178  23.7349529
  60.0214462  55.2431221  22.9484062  84.2555618  16.6915112  39.5507927
  84.9411926  17.2658634  39.8917656  84.7102661  15.8770409  39.3360443
  72.7462769  57.7113647  88.5010452  73.1209106  58.5508156  88.2341995
  72.0127182  57.9462776  89.0693130  25.6462498  44.0726471  74.9047699
  25.6164150  44.6598434  75.6601105  25.5353966  44.6491318  74.1487198
  72.8179321  35.7478752  54.7800026  72.7649994  36.6977959  54.6747551
  72.0443192  35.4131622  54.3264313  58.5692635  18.4765148  18.7628765
  57.6373215  18.6461620  18.6252747  58.5976486  17.9010220  19.5272293
  10.9070158  46.8288269  54.0983734  10.0410662  46.5428772  53.8075180
  11.4330330  46.0291595  54.1066895  26.5752735  32.6740227  11.6313381
  27.4720650  32.6794167  11.9659510  26.1226673  32.0247383  12.1696758
  56.9824524   2.0834644  42.0815468  57.7760201   2.5723403  42.2994499
  56.8151054   2.2954719  41.1632423  56.1930084  43.9108162  60.1754112
  56.1388702  43.6216393  59.2645416  57.1309471  44.0057373  60.3412209
  76.3372803   2.7233932  36.4537392  76.9696884   2.2289145  36.9750671
  76.2226181   3.5445914  36.9319839   0.3539019  68.1967850   5.2945747
   0.7964274  67.6369247   5.9325094   0.7388860  69.0628967   5.4282489
  71.6984253  61.3773880   2.9854352  71.3223343  61.7372627   2.1821432
  71.1607361  61.7445717   3.6870744  56.5697479  61.8396416  65.1569595
  56.3901634  61.1649475  64.5021591  57.4613762  61.6553841  65.4524002
  54.5885468  29.5078640  49.5954208  54.3598785  30.4341106  49.5178947
  55.0260925  29.2992802  48.7700272  84.4152069  29.2628212  45.4474640
  85.1092072  29.4196281  44.8071442  83.6057053  29.3044968  44.9383430
  79.8870773  67.7024841  16.6061192  80.6302948  68.2991867  16.6945419
  79.1983490  68.2350616  16.2083168  37.5504532  51.6940765  83.3317261
  38.4076881  52.0994911  83.4621964  37.0402336  52.3570976  82.8666382
  11.1695156  29.1658096   1.6146960  11.8220778  29.4764690   2.2422991
  11.0894699  28.2293816   1.7961532  60.3923759  55.1139984  35.9445496
  60.9494133  55.1998863  36.7182198  60.6231003  55.8656616  35.3986549
  51.3855934   8.2597761  27.8719997  51.6672516   8.1053495  28.7736931
  52.0270004   7.7919178  27.3372650  48.0595207  17.9402943  61.5290756
  47.7710609  17.0278378  61.5078926  48.9953995  17.9002571  61.3321915
  82.2420807   5.6815014  81.6893234  81.9236832   6.1082430  80.8938675
  82.8735504   5.0334301  81.3770981  51.0584869  28.9294147  29.6810989
  51.2508583  28.1941414  29.0992088  51.7653770  29.5542049  29.5193043
  69.7001648  40.7255707   5.8053603  69.7016907  39.8861008   5.3454461
  68.7955246  41.0318527   5.7417955  69.6834564  63.7576828  51.5484467
  70.2689743  63.1373901  51.1141243  68.8862381  63.2558479  51.7182808
  46.7208977   7.0698671  42.9215012  46.0074577   6.4619069  42.7275391
  46.8751945   7.5292521  42.0960350  12.5403366   9.4069700  80.5403976
  11.7536802   9.9389706  80.4204865  13.0486107   9.5475454  79.7415695
  72.0592651  53.9182739   1.1954097  72.2257767  53.3691025   1.9615142
  72.4708023  54.7561150   1.4073066  37.0213318  28.4461365  78.1879959
  36.2822800  28.9076252  78.5843124  37.0163536  28.7271538  77.2729950
  68.8433533  46.2369347  30.5689602  69.6105423  45.8044167  30.9439011
  69.2028656  46.9637489  30.0603065  74.8102341  59.1517830  68.6168747
  74.6025009  58.5057602  67.9417877  74.6704483  59.9972534  68.1904068
  48.1617775  14.5497293  89.1723557  48.6614265  13.8801174  88.7052383
  48.1601448  15.3029451  88.5816879  80.0902252  34.1169472  23.4469223
  79.4437180  33.6027870  23.9305534  80.5482254  33.4757652  22.9034576
  47.4177017   7.5855689  13.3034782  47.3345490   7.8621016  12.3908739
  46.9970284   8.2841616  13.8047094  22.7306709  35.6047249  15.8789902
  22.1672764  35.7316093  15.1156301  23.5761261  35.3459015  15.5123158
   9.9325037  59.5890427  31.3679924  10.6845522  59.4627724  31.9465351
   9.4907551  58.7399025  31.3606243  23.9986763  35.4207726  56.2802734
  24.1975937  35.1055565  55.3986244  23.2587738  36.0161171  56.1605186
  25.4751091  49.8681564  73.9191132  24.8857365  50.1577721  74.6155319
  25.2844734  50.4526978  73.1854858  61.8774223  21.1762733  79.5100250
  62.4620743  20.7154255  80.1117172  61.5277290  21.9030895  80.0254745
  25.9315853  23.6588192  86.4633026  26.1262169  24.4572983  86.9540024
  26.3908730  22.9670849  86.9395294  79.0096512   4.5603862  73.4767609
  78.0978699   4.8458095  73.5352936  79.5020981   5.2341480  73.9455566
   9.5309324  18.4128189  15.0030909   9.5300264  17.8411026  15.7707958
   8.9335461  17.9881134  14.3874722  44.4005013  46.4313736  65.5204315
  43.7211037  46.7817154  66.0965500  44.8575249  45.7827759  66.0558548
  34.2348938   0.2368005  46.4362259  34.3469620   0.6088955  47.3109932
  34.6380844  -0.6296081  46.4910316  38.0386887   0.3339188  64.7222977
  37.4337769   0.7210805  65.3550797  37.4860306  -0.2190419  64.1699982
  55.9145279  54.0104637  87.9928894  56.7073212  53.9654045  88.5273819
  56.2003250  54.4158363  87.1742172  17.6718102  63.2097359  60.5017014
  17.6307278  64.0576096  60.9440308  17.9467831  62.5968933  61.1836433
  15.4927883  37.4859390  89.4312286  14.9050751  38.0365677  88.9139023
  16.2734585  37.3902626  88.8856735  62.3029709  45.4100113   7.7361908
  61.3982620  45.5678864   8.0060310  62.7880554  45.3333473   8.5578022
   2.1602483  70.2453079  18.8852329   2.5650814  70.4155350  19.7357426
   2.0086553  71.1144257  18.5138874  63.7438812  70.7096863  28.0383530
  64.1266174  69.8355408  27.9634552  63.5187798  70.9503937  27.1396770
   4.1329451  46.6541367  62.7846870   3.9865580  47.0469322  63.6452179
   4.9890695  46.9849281  62.5129166  51.6686401  52.5560455   9.8289394
  51.9688072  52.5065460  10.7365074  51.9571419  51.7322884   9.4359789
  65.2798233  54.0166893   8.8881168  64.8657303  54.2087860   8.0467730
  65.3259964  53.0611267   8.9197102  63.8960571  44.8849220  88.5988235
  64.4629974  44.7507820  89.3583145  63.0158768  44.6876945  88.9191589
  69.0629349  58.1530304  32.5070763  68.4635239  58.5933914  31.9045696
  68.5101395  57.5359764  32.9865494  39.2969475  62.3439941  55.8274155
  38.8484306  62.7493210  56.5695572  38.9005013  62.7505608  55.0568542
  10.5683041  35.0246468  26.0534897  10.7896605  35.5628815  25.2935333
   9.9714966  34.3596001  25.7103138  15.8065987  56.6765327  35.2550354
  15.9586344  56.4067307  34.3493195  16.2540398  57.5191879  35.3322525
  29.3613281  -0.0549028   2.8339324  29.7789497   0.5692452   2.2404146
  28.7013187  -0.4921744   2.2959611  74.5368805  25.7467899  49.9884453
  74.5675964  25.2664089  50.8158073  73.9005356  26.4454536  50.1406326
  33.3773804  38.5681190  17.0949249  32.8109818  37.9668388  16.6113052
  34.0750046  38.0125656  17.4426556  59.3807983  56.3098183  41.7144890
  58.5524025  55.9618301  41.3844986  59.1293793  57.0707207  42.2379875
  68.5749893  15.1152267  39.8947525  69.2914047  14.5522404  39.6014519
  68.4296951  15.7176266  39.1652069  45.5868530   3.2782607  65.0054092
  44.9990959   3.3727643  65.7549667  46.1306915   4.0656714  65.0267105
  23.6685543  56.5020294  79.6347427  22.8317757  56.1172066  79.8954010
  24.0730553  56.7758064  80.4579391  70.9964294  34.4727097  23.0006886
  70.8839569  33.5499306  23.2288609  71.0259323  34.4809990  22.0439777
  61.2730408   9.4411802  85.3130722  61.6595879  10.2452478  84.9662399
  61.2915688   8.8296223  84.5769424  82.0009308  37.6110687  79.4878845
  81.9537964  36.6863518  79.2451782  81.6425323  38.0757408  78.7316666
  34.9734802  19.2381191   1.8164967  35.9139900  19.1711884   1.9813982
  34.5683823  19.0644474   2.6661823  55.3070450  40.9227753  81.2751389
  55.0828247  40.4028091  80.5033951  54.6049805  40.7397346  81.8995056
  13.9554081  56.9028625   0.7016453  13.7864132  56.8815651   1.6435682
  14.1879807  57.8135529   0.5205681  23.5523186   2.7373557  82.9678116
  22.9041977   2.7138603  83.6718140  24.3945370   2.6525166  83.4146881
  15.8415155  24.9241257  27.0239067  16.6871700  25.2991657  26.7780514
  15.4937811  25.5274429  27.6806564  84.8915634  67.4329376  27.1397762
  85.8193817  67.5699539  27.3311043  84.8537216  67.3460007  26.1872845
  67.7884140  54.3216705   4.2468781  68.4062042  54.8682747   3.7612941
  67.6885986  53.5366516   3.7083533  43.0177689  25.2514801  41.8168945
  42.9210701  25.4393063  40.8832970  43.2939034  26.0834980  42.2012482
  45.7456741  26.3832455  88.4347229  45.4441452  27.0960197  87.8714600
  45.0003777  25.7845650  88.4831314  41.7255325  13.7637959  39.6540184
  42.6338463  13.8980389  39.3835030  41.3416214  14.6406097  39.6475754
  61.5547981  61.8137856  22.2234306  62.0924492  62.1107979  21.4893017
  61.3095016  62.6177597  22.6813431   0.8547194   2.0694821   3.9522629
   0.9191212   2.6413374   3.1873667  -0.0237253   1.6933286   3.8968067
  57.1947060  56.8272858  39.3382950  57.9470787  57.3812714  39.1302757
  57.0831375  56.2745438  38.5648232  75.4628220  32.3069229  51.1543007
  75.1728058  33.0703735  51.6535721  74.8254166  32.2286873  50.4444923
  52.7783508  -0.1780561  52.9862747  52.6558647   0.7703206  52.9437218
  53.6994095  -0.3108957  52.7621231  52.1238747  51.3307190  69.1666641
  52.3414154  52.0345879  69.7777939  51.5551529  51.7445107  68.5173874
  77.7880554  33.4303207  82.7724609  77.3901138  34.2171440  83.1449966
  78.7299042  33.5666237  82.8752594  74.2695465  14.3217497  81.7052536
  73.5017090  14.8875742  81.7859192  74.6996994  14.6148272  80.9019470
  59.5320206  51.1290169  75.3665695  59.0330429  50.3238525  75.2288589
  59.1546822  51.7535553  74.7470551  37.8405914  70.0754776  57.9737129
  38.2038651  69.8952789  58.8407745  37.4401398  70.9408951  58.0569382
  54.2526512  56.8457527  40.5567551  54.0043983  55.9559135  40.8073311
  55.1507835  56.7625999  40.2363243  18.2734337  21.2536068  59.8823013
  17.9062843  22.0993195  59.6250076  18.5413513  21.3759155  60.7930679
  45.5500679  18.2094803  56.9930115  44.7681961  18.2726994  56.4444580
  46.2427177  17.9350128  56.3920631   8.4032574  17.4447937  79.6716232
   8.9349766  16.9048519  79.0868378   7.5758681  16.9698849  79.7498474
  66.9990082  62.8877602  20.4068642  67.6057968  62.7995644  21.1418896
  67.0067062  63.8224754  20.2007580  24.2938366  63.8402290  79.6989822
  23.7712612  63.1267052  79.3328781  24.7049923  63.4616814  80.4760818
  72.9739838  53.9658051  42.5075912  73.6985855  54.2553520  41.9532013
  72.3993607  54.7289009  42.5686417  44.8386459  39.6332016   3.3707159
  45.4916000  39.0698509   3.7860701  44.7428474  40.3721313   3.9715767
  18.3768196  42.8120422  39.4940376  19.0146179  42.8358612  38.7806816
  18.8906822  42.5783157  40.2670517  14.9531031  71.1906662  71.6767502
  14.1220932  71.0993652  71.2105789  15.0692949  70.3531723  72.1254501
  20.2654190  55.3153076  88.9817123  20.7355804  54.5778809  88.5926361
  19.4004364  55.2905998  88.5725327  11.6866083  44.0054054   6.0283294
  11.6725807  43.4325218   5.2616234  11.9926853  43.4443932   6.7409396
  40.1221581  54.2915955  77.4666901  39.2339897  54.0444527  77.2091751
  40.0327492  55.1793098  77.8133850   1.6046681  49.6602135  13.2609358
   0.7321938  49.8009872  13.6286354   1.4593847  49.5969048  12.3169460
   1.6369377  28.3284512  21.6525497   1.7350228  28.6120186  20.7435932
   2.0405922  29.0278301  22.1665173  62.5959663  22.1747684  27.6816387
  62.9033928  22.8569546  28.2785854  61.9443207  21.6895180  28.1877232
  63.1111145  16.4969730   2.9385054  64.0313492  16.7008915   2.7716968
  62.9561462  15.6817541   2.4613945  18.8910885  53.7449188  47.9984016
  18.2638874  54.4197273  47.7386246  18.7183495  53.0154800  47.4031639
  75.5046768  56.2469368  72.7070770  75.7399673  56.8570786  72.0080795
  74.5876007  56.0310631  72.5379333  56.5469017   6.5916934  55.6006622
  55.9658852   7.3522577  55.5866127  55.9670753   5.8505549  55.7760124
  79.9429550   3.0009556  18.8018513  80.8552170   3.2901111  18.7819138
  79.6645966   3.0231640  17.8862877   5.3484426  54.9177399  51.4312057
   4.6452112  54.9517479  52.0796967   5.0092382  55.4105339  50.6839943
  48.6242142  21.0636520  31.8037777  48.1328354  20.3707314  31.3625965
  48.4898834  21.8378296  31.2571182  70.5886078  10.2892084  48.5177536
  71.0624390  11.0154896  48.1124992  70.9757462   9.5044727  48.1297531
  47.8544235  51.7085342  76.9708252  47.0120583  51.5346298  77.3908310
  47.7075195  52.5045547  76.4599457  32.2594337   7.8951950  15.8569145
  32.8764877   7.2921448  15.4424191  32.5966110   8.0096769  16.7454166
  84.4703598  42.6878357  74.7569962  84.8689804  41.8620300  74.4824448
  83.5280533  42.5273476  74.7066498  60.7888794   5.6858997  24.5915737
  61.6543427   5.3120055  24.7571392  60.9681015   6.5549035  24.2324848
  23.7684822  13.6114922  86.4475479  23.1910458  13.1733856  87.0727386
  24.4182720  14.0556688  86.9922638  15.6179657  34.7896080  17.7046852
  16.1977730  35.3834724  18.1815281  16.2090950  34.1712456  17.2752399
  37.4658661  48.5152740  43.4140320  38.2168503  48.3819427  43.9923706
  36.7747803  48.8417397  43.9902687   3.7190313  54.8104782  62.3673897
   3.1210325  54.7215691  63.1095009   4.5649848  55.0168953  62.7648697
  15.3075762  36.2438698  61.4630966  14.7594118  36.9586296  61.7869301
  16.1064968  36.6739731  61.1581879  27.4667397  43.1497231  46.6303482
  28.3795967  43.3058395  46.3883743  27.2671070  43.8357658  47.2673111
  14.5751572  50.5835037  74.0892563  14.8338318  49.8246574  74.6121979
  14.6488285  51.3248825  74.6902237   1.3426093   8.2018881   9.1724739
   1.4283451   7.5204825   8.5057154   0.4455786   8.5212440   9.0746002
  34.5649147  42.9226799  67.8902664  35.1200256  43.2101402  67.1653900
  34.4148178  41.9922981  67.7226410  42.0714684  21.0125256  70.5300598
  42.2194710  21.9581203  70.5166779  41.6124458  20.8303165  69.7101059
  24.7384663  24.2978382  19.9634171  24.8760700  25.2164288  19.7321396
  24.9418755  23.8159542  19.1617661  53.0601158  64.6062393  37.3253059
  52.3921280  63.9990005  37.6435547  52.6333122  65.4628296  37.3435173
  79.4639969  45.2227974  16.5847950  78.5693893  45.5201416  16.7506332
  79.7641373  45.7626190  15.8535366  49.0693741  64.2579117  61.2100754
  48.3100662  64.5907974  60.7316742  49.5828552  63.7920227  60.5501404
  37.7969398  44.7682838  59.7681007  38.2000694  44.7935104  60.6359062
  37.5779800  43.8463974  59.6324310  38.0298576  38.8322601  22.4471607
  37.2906227  39.3716087  22.1663227  38.8004036  39.3730392  22.2738056
  52.9918671  63.0408440  23.4780827  52.0522766  63.2137909  23.4189720
  53.0596504  62.2811775  24.0564785  51.0312424  69.4124374  43.8909340
  50.8216209  68.4904633  43.7417603  51.9583206  69.4117737  44.1291695
   9.7822752   0.1989435  87.7589493  10.4432688   0.8012406  87.4175491
   9.0582495   0.2596511  87.1357880  23.5459747  44.8438148  15.4806719
  22.8413906  44.7284012  14.8431187  23.4414673  44.1116295  16.0883026
  58.8845482  36.1472244  56.6598587  59.3857613  35.3796806  56.3843765
  59.3616333  36.8901520  56.2901573  51.1902390  18.4605637  55.0916634
  51.2125587  18.9122200  54.2480164  51.2923851  17.5348740  54.8705368
  72.7683868  20.3089561  51.3751602  72.9321442  21.0112572  50.7457275
  73.2909241  19.5736713  51.0549355  61.1784096   1.4381553  77.9583359
  60.7867928   1.3539582  77.0889816  60.4752121   1.1987215  78.5620041
  59.6719818  49.9254875  18.8677464  59.7704468  49.0053368  18.6230850
  59.8348770  50.4076347  18.0570469  71.5996170   2.6532516  87.9742050
  71.0489349   3.4275844  87.8584595  72.3694077   2.9747789  88.4435272
   6.2135129  48.5257835  61.4852333   5.7339935  48.6257629  60.6628609
   5.6830282  48.9935722  62.1302071  24.2920704  66.8375092  64.0926971
  24.0417099  65.9896317  63.7257538  24.8785000  66.6210327  64.8175888
  66.2484741   1.4036617  25.4143772  65.7733154   0.8576530  26.0407372
  66.4991760   0.8016119  24.7137222  36.2993240  27.8003178  17.7867813
  35.4684296  28.1330662  18.1260757  36.8805962  27.7874489  18.5471687
  86.9787750  13.3098640  57.8640862  86.8424606  12.3624878  57.8755226
  86.1697693  13.6726141  58.2248611  41.3661537   0.5503278  38.9321556
  41.8937683   0.2837392  38.1793022  40.4688187   0.3234198  38.6881638
  70.0546341  25.3310490  25.3917732  69.5049820  25.4979076  26.1574631
  69.4880219  24.8468933  24.7911243  33.9778023   5.8442841  10.4263420
  34.7331161   5.7615566   9.8442011  34.3559456   5.8879008  11.3045998
  10.1905851  56.4501572  78.7943497   9.8844242  57.2871323  78.4451065
   9.6989136  55.7916260  78.3036118  24.5786400  -0.0267037  87.0189819
  24.5231705  -0.3218178  86.1100998  24.9409084   0.8574625  86.9620285
  74.0123901  35.2177963  85.1687546  74.1417694  35.3121109  84.2250366
  73.6359634  36.0538406  85.4436340  11.5629950  41.1828690   7.8259220
  11.3484735  40.3624496   7.3819361  11.7490177  40.9250679   8.7287874
  53.2137260  46.2707634  53.7367058  52.5364342  45.8396950  54.2579460
  53.9995956  45.7440796  53.8824539  14.5235806  60.1114426  63.9565697
  15.0965900  59.3930359  63.6886406  13.7670345  59.6793022  64.3529587
   5.1068711  47.4371643  75.5611496   5.8494081  46.8528748  75.4079208
   5.4763117  48.3174133  75.4910965  57.8928032  24.6497974  81.5466766
  58.5186615  25.3649521  81.4322739  57.1585045  25.0467758  82.0151291
  26.5174618  49.7475204  14.1247749  26.4587307  50.5488663  14.6449986
  25.8306122  49.1819420  14.4777489  84.7179413  54.6175499  17.1663914
  85.4919815  55.1184692  16.9091454  84.4032974  55.0529327  17.9586468
  22.1525459  32.6458664  72.4129715  22.3172874  31.7126484  72.2780762
  21.6790218  32.6878471  73.2437820  84.8877182  34.7286224  19.5108795
  84.5753937  34.8815536  20.4026737  84.1609039  35.0037766  18.9520702
  58.1800346  12.9521189  57.1702843  58.1694336  12.0468521  56.8594627
  59.1039505  13.1364527  57.3394966  20.0182095  41.5253410  82.7169647
  20.3731136  41.7382011  81.8538513  20.7632999  41.6151543  83.3111038
  48.4468117  -0.1535790  31.2850304  48.7565422  -0.0580322  32.1856804
  47.6412621   0.3624455  31.2527637  73.4438019  22.3133526  78.4338531
  72.8856430  22.2226582  79.2061691  73.3693008  21.4715748  77.9843063
  70.9845505  37.5605469  21.5668259  71.8058701  37.6213493  22.0546494
  71.2458801  37.2696800  20.6931343  21.8632202  38.2097702  87.6198807
  22.3229885  37.4607544  87.2406464  21.2587280  38.4922791  86.9335785
  42.6053543  25.7633572  19.4572449  43.4742355  25.5057602  19.1491508
  42.1094513  25.9374828  18.6572495  39.2296524   3.0684977  15.8333759
  40.0725594   3.5195622  15.7856245  38.5803452   3.7600331  15.7052689
  63.6473465  63.8974953  72.7555008  64.3128204  63.2123871  72.6922379
  62.9151993  63.4791374  73.2084579  35.4006653  43.8636475  34.2514534
  35.9456100  43.0912819  34.4021683  34.7598114  43.8470268  34.9622688
  50.3529816  23.6187801  39.5366592  50.0501251  23.2253494  38.7182961
  50.9913254  24.2777729  39.2637558  52.7647972  39.2130318   5.3352776
  53.3089561  39.9905739   5.4599953  52.7037086  39.1133194   4.3852472
   3.5894337  66.3698959  24.2621841   2.8002617  65.9266052  24.5735264
   3.5840034  67.2138824  24.7137299  75.6422882  42.5432167  15.8948879
  75.0245056  42.9996986  16.4660320  76.2822800  42.1581306  16.4935093
   6.3342266  36.1279411  85.7198792   7.1024361  36.3826599  85.2087936
   5.5896258  36.4307747  85.2001724  54.7120857  33.4981728  71.6908417
  54.2110634  33.8868561  72.4078751  55.4568748  33.0769272  72.1198730
  14.2013884  17.1664143  79.8972855  14.1500874  18.1214638  79.8588333
  14.0604944  16.8824329  78.9941025  62.2452507  42.8907089  85.4390182
  61.6634064  42.1350327  85.3575287  61.7426414  43.5261154  85.9487991
  51.5849075  35.4123001  34.9165421  51.7502823  35.5321732  33.9813881
  51.6071053  36.2978821  35.2791443  19.4181156  54.8792305  83.7601013
  19.8823948  54.1462402  84.1643295  18.7305164  54.4677467  83.2365341
  47.5142441   8.6719418  40.7064133  46.7207222   9.1280575  40.4262085
  48.1207924   9.3722897  40.9469223   6.4203234   3.2591770   2.8434851
   6.8542433   4.0118585   3.2452509   5.5581498   3.5876849   2.5885894
  20.7472134  50.4349823  71.1653748  20.6810150  49.4947052  71.3319016
  21.6037769  50.5454063  70.7526550  68.3159409  54.5218048  28.8785610
  69.1410599  54.9210472  28.6028461  68.4719467  54.2496910  29.7829113
  31.0282536  36.4975357  21.0258026  31.4690514  36.5138130  21.8753128
  31.3765507  37.2581520  20.5606308  61.7351723  31.8545017  79.7632523
  61.1550102  32.1092987  79.0458145  62.4790230  32.4529076  79.6938095
  55.2545815  66.5427399  84.0069809  55.4765701  66.9967346  84.8199005
  56.0524483  66.5906143  83.4803391  36.3735085  20.3433266  67.2594986
  36.0405273  21.2247295  67.4282684  37.2022858  20.4839783  66.8017044
  20.0311241  54.3824844  32.5355797  19.9587975  55.3219032  32.3667755
  20.0164146  53.9811745  31.6666927  33.8088608  20.9708099  69.8091965
  34.0774689  20.4748764  70.5825882  34.2839775  20.5621262  69.0856781
  12.1555653   2.0356994  12.0457058  12.3181124   1.3793947  12.7232561
  11.8318777   2.7988865  12.5242491  19.7620564  14.4049349  46.7169647
  19.3702126  14.0054989  47.4935875  20.6967716  14.2141056  46.7952232
  50.7867279   9.1830072  46.2419930  51.3160210   9.7042818  45.6383820
  51.3485985   8.4444685  46.4767075  39.0029755  43.8494606  35.5990486
  39.4221497  43.8846779  34.7392311  39.6628075  44.1929436  36.2014351
  61.7889290  33.6867905  73.9641190  62.6845093  33.5268669  74.2617569
  61.8215714  33.5429497  73.0183487  58.6130486  54.9537849  74.6703415
  59.2635918  55.5700645  75.0068283  57.7908516  55.4437943  74.6811218
  13.7634096  52.7584076   5.0567689  14.3447180  52.0884323   5.4165530
  12.9088736  52.3304558   5.0033240   4.5577164  11.9622869  26.8332806
   5.1586704  11.2702827  26.5572071   4.4937015  11.8592024  27.7827587
  86.5588303  63.4083328   0.7995367  85.8034210  62.8257980   0.7205477
  86.5556717  63.6815948   1.7168965  67.4365921  42.9280853  78.4086990
  67.9462738  42.1487389  78.6302338  67.1887131  43.3006668  79.2548523
  40.0403099  11.7125416  12.4344206  40.6898460  11.4938488  11.7662086
  39.2262154  11.3250103  12.1130095  61.8801422  52.6736145  46.9216881
  62.7819214  52.6379242  46.6026993  61.6653824  51.7655029  47.1348686
   1.9052012   3.9425793  26.7910271   1.3011560   3.2384062  27.0266151
   1.5185366   4.3385539  26.0100498  32.9700584   1.5806473  11.1387901
  32.6065941   2.1093347  10.4284267  32.2041588   1.2636182  11.6174583
  30.4319172  48.3968925  35.1533852  30.3689251  47.9438095  34.3125648
  30.4807377  49.3245506  34.9225159  39.5716019  58.4847298  31.3637123
  39.6836700  58.3477440  30.4230175  40.3856926  58.9033470  31.6434517
  49.8995514  23.1193123  19.2867489  50.5965271  23.7707100  19.3650875
  49.5074692  23.0819569  20.1591644  74.1851883  68.9112778  16.4246750
  74.8515167  69.5880585  16.5438747  74.6200180  68.0988083  16.6835938
  66.3278809  68.2693329   8.1844568  65.9273224  69.1215820   8.0128088
  67.1944885  68.3265839   7.7820225  66.5604172  12.2979555  56.2857208
  66.3318024  12.2063503  55.3607483  67.2704849  12.9397984  56.2945099
  68.2058182  28.6939392  12.5491333  68.1560135  29.6115608  12.2813234
  67.6130676  28.2376289  11.9519205   5.0694566  33.6997948  18.4570904
   5.4988503  33.7099571  17.6016674   4.8782058  34.6196785  18.6400280
  25.7496414   4.8536167  33.3050194  26.5894985   4.4156890  33.4431877
  25.4791107   5.1341410  34.1792908  74.7956467   7.3929567  50.8782158
  73.9154205   7.1258144  51.1429253  75.2410736   7.5980468  51.7002640
  61.4359131  61.5735130  56.2320633  60.6509666  61.0450478  56.3763351
  62.1465530  60.9351540  56.1711006  75.2028275  69.6099014  81.8282471
  74.9215698  68.7991409  82.2522659  75.5275116  69.3320923  80.9717255
  48.2041168  71.3013000  56.7789993  49.1433716  71.3008118  56.5945129
  47.8335075  71.9029007  56.1332779  53.9094009   0.7230281  88.8878784
  54.6305122   0.9753979  89.4645386  53.3263931   1.4821951  88.8871155
  70.7678680   0.9828849  40.7685966  71.4463272   0.4116578  40.4085655
  70.7622604   0.7870461  41.7055321  77.3070068   3.4309595   8.7993269
  78.0706787   3.5808740   8.2420359  76.8185349   4.2533169   8.7625637
  24.7458038   1.7388557  20.6266384  25.1653824   1.2346616  21.3237553
  25.2520790   2.5498459  20.5796051  66.1691208  24.6275330  85.0051727
  65.8154755  25.3721027  84.5185699  66.6828003  24.1418476  84.3598328
  53.1517258  27.0533047  77.2500229  53.5953407  26.8017788  76.4399796
  52.3212013  26.5780430  77.2257919  28.5418625  53.8299103   5.3286142
  28.9335194  53.8251686   4.4552221  28.6195107  54.7380447   5.6210012
  10.4752245   2.3440273  56.7872696  10.3553600   2.9605372  56.0649261
  11.0244398   2.8140676  57.4146919  44.6243095  37.6799545  13.1254253
  44.8090439  36.9111481  12.5859404  43.6971397  37.5985260  13.3489418
  48.2073975  65.8394699  54.1089020  48.3693542  64.8960800  54.1044846
  47.2612572  65.9194870  54.2299347  27.2239056  46.6184502  61.0240250
  26.6703472  46.2463036  61.7105484  26.6115761  47.0607605  60.4361115
  79.1646957   2.6781325  23.6179428  79.3768463   3.5755966  23.3614616
  78.2568512   2.7230299  23.9179859  55.1610832  12.6167564  57.8340302
  55.0259171  12.7739553  56.8995514  56.1104240  12.6585569  57.9490814
  60.8335075  14.4706783  39.4745636  60.3062172  13.9849768  38.8403015
  61.5860138  13.9039965  39.6443825  21.7901878  52.2901917  44.0163231
  20.9048214  52.1384964  43.6856461  21.7454796  53.1498146  44.4349861
   5.4353938  63.0109558  66.6775513   4.7860899  63.2242508  67.3477325
   5.9738078  63.7991562  66.6062546  16.3305168   5.0608468  18.8163719
  15.8605518   5.1785927  19.6419048  16.3668728   4.1121111  18.6946754
  81.4489136   7.9795480  25.2655201  81.9822617   8.7647972  25.3886471
  80.7059708   8.2747402  24.7390900  74.9296951  13.4521809  64.1824799
  75.6072235  14.0187397  63.8134270  74.8823471  13.7047720  65.1045380
   1.9187592  70.3134842   2.3617861   1.6044886  69.4585724   2.0675261
   1.1292702  70.8514709   2.4210765   8.3378344  63.4049644  59.6710777
   8.3593569  64.3617783  59.6878090   7.4262328  63.1893005  59.4743423
  52.4971657  70.9164200  85.2667542  51.6861343  71.1446686  84.8124847
  52.2129860  70.6293945  86.1345673  70.1412125  50.8377075  62.7941246
  70.2710724  50.9785194  61.8562851  69.6259766  51.5918770  63.0804749
   7.1424665  31.9520473  76.7156830   6.5103440  31.9590492  77.4344406
   7.8786230  32.4713898  77.0390854  74.2826004  25.3738689  24.7898121
  74.8207703  24.6173325  25.0227432  73.7470245  25.0702553  24.0568638
  20.3949356  23.6832504  84.4584503  21.3358860  23.6464825  84.2867126
  20.1952648  24.6185093  84.4991531  85.6610031   7.8489356  21.9559097
  85.2183380   7.1372409  21.4935551  85.7381287   8.5461826  21.3046570
  76.8016891  45.6710663   2.1208966  76.9230957  45.8043861   1.1808336
  77.1837158  46.4503517   2.5246303  86.1021500  41.3279610   4.0468516
  85.9585037  42.2373810   3.7850351  86.2765045  40.8671455   3.2261925
  20.3211842  54.8163681  26.8454838  20.1566505  53.8880081  26.6802425
  21.2721233  54.8788185  26.9351902  11.6654816  64.4754105  40.2625999
  11.5894556  65.0520935  39.5024033  11.0121689  63.7923737  40.1113663
   9.4440937  65.1183167   8.8076630   8.6399632  64.8771133   9.2674723
   9.4992886  64.4984207   8.0804024  14.8651209  69.7775421   5.8873777
  15.2242584  68.8992767   5.7612939  14.6219673  70.0654678   5.0074868
  25.2001896  12.2032356  67.3907547  26.0205326  11.7849588  67.1293869
  25.4369545  12.7455740  68.1431122   0.9279559  42.6981239  60.1096649
   0.0117308  42.6313400  60.3785591   1.2487361  43.4873390  60.5460968
  30.7086735  34.3193932  27.2116165  30.8176575  35.2658119  27.3046131
  30.3923073  34.0295105  28.0672531  76.4282761  55.5530777  88.9061813
  76.0063248  54.7294388  89.1507263  75.9411240  56.2233009  89.3854752
  82.5795135  28.5358486  60.9354362  82.6873093  27.6713390  60.5389061
  82.1943970  29.0712280  60.2416878  54.8277550  45.3993721  26.0818233
  55.5431023  44.8623161  25.7411194  54.0935974  45.2212753  25.4940109
  20.2260857  66.7412491  27.2901230  20.9035625  66.1036148  27.5152321
  20.1039562  67.2532730  28.0895882  65.6710510  55.6875343   5.2503028
  65.3354034  55.1417427   5.9614143  66.5012131  55.2785149   5.0058160
  23.9256210  13.4959183  69.8724594  24.8267822  13.2062244  70.0146484
  23.3877506  12.7934952  70.2378769  52.0363998   9.1790905  84.9550705
  51.5880127   8.8262596  85.7236404  51.4632187   9.8797779  84.6440506
  36.7896805  52.6312218  70.8386154  36.5517731  52.1733971  70.0323715
  37.7120552  52.8587456  70.7215958  29.8486862  34.1855545  11.9853077
  30.6835041  34.3170242  11.5358343  29.6611176  33.2534904  11.8743715
   8.3505630  38.7233047  42.7416458   7.7310038  39.3925323  43.0323524
   7.8203831  38.1120262  42.2302933  25.9571857  32.9481964  77.5189209
  25.7571793  32.2323875  78.1221161  26.8639584  33.1821175  77.7171021
  62.9964828  24.3217773   3.9327197  62.2690887  24.0358067   3.3801358
  63.6132507  24.7294483   3.3247459  47.5935516  11.3599062  14.6343212
  46.8833389  10.7196331  14.5910139  47.1598167  12.2063723  14.5266075
  54.5507774  32.3237762  16.8288593  54.5899277  33.1642189  16.3724041
  54.1910210  31.7165680  16.1822510  80.3487549  39.7000465  36.1646080
  81.1737061  40.1509132  35.9846115  80.4422607  39.3784409  37.0613022
  39.3649902  64.8627472  34.7375526  39.7242813  64.1016998  35.1935654
  38.4396820  64.8738174  34.9823341  61.9986572  59.6318436  10.0017900
  61.5351791  60.4333000   9.7587090  62.3219643  59.2810593   9.1719360
  81.9619217  45.6989021   9.5745993  81.2726746  45.7433167   8.9118786
  81.9433365  44.7916031   9.8790588  77.7250214  39.5528145  60.5533943
  77.4193878  40.4562836  60.6344109  78.3606110  39.4505463  61.2617683
  67.4306793  15.3697634  58.4224586  67.3615341  15.9179440  57.6408234
  67.7649536  14.5330362  58.0993767  73.9871368  35.2372475  59.6478996
  73.8618851  36.1847992  59.5960464  73.2484436  34.8710403  59.1616325
  50.4579163  44.8137093  12.3450813  50.7813454  45.4330597  12.9993229
  50.3067169  44.0052567  12.8347445   9.7284927   9.6776485   5.5792556
  10.1282101  10.1175613   6.3295450   9.2013569  10.3558493   5.1568789
  76.6634521  21.7737484  72.9096222  76.0567245  22.4712887  73.1577148
  76.6287689  21.7550659  71.9532318  71.1996613  33.5941277  71.0054169
  70.7259521  33.3692703  71.8062057  70.9785233  34.5116806  70.8459549
  71.5166855  11.3392859   8.3764782  71.0126801  12.1510172   8.4339542
  72.1924591  11.4288588   9.0484476  12.4343529  38.4682541  73.1984406
  12.1769171  38.4668121  72.2765121  11.6594038  38.7842560  73.6630173
  72.9981613  20.0676384  44.5548172  72.7886505  19.3163700  43.9999008
  73.6596069  20.5527477  44.0614700  46.9117813   6.1623449  10.2172728
  46.4404449   5.5269170   9.6784725  47.5979538   5.6507607  10.6458473
  45.2100143  21.2626648  68.2735748  45.9964104  21.5518303  68.7363815
  44.9788666  22.0008392  67.7097473  61.3225479  18.9947186   6.3646245
  61.6296997  19.8295708   6.0111995  60.4580269  18.8721447   5.9724364
  81.2717285   3.8964918  21.7060814  81.5870819   4.5943537  22.2803402
  81.9024506   3.8751857  20.9863815  33.5864487  42.7067986   4.9256673
  34.0726852  43.5310936   4.9071894  33.3060989  42.6144524   5.8362212
  18.7080212   0.6481135  11.6500549  18.8592987   0.5202692  10.7135715
  19.5185490   1.0426625  11.9719353  10.7590418  63.0139465  63.2975044
  11.0819197  63.9059525  63.4251747  10.9526072  62.5687866  64.1224899
  26.9868355  54.3784027  53.6383095  27.6637421  55.0349197  53.4739494
  26.5418835  54.2773094  52.7968636  14.0396328  19.2467213  30.2868633
  14.3400640  19.9484768  29.7093582  13.1450739  19.4949245  30.5200825
  53.6431961  22.1116657  62.0629883  53.3122406  21.9245415  62.9414444
  54.5260010  22.4523926  62.2071800   3.3304656  16.8285885  77.6364288
   4.0217299  16.4351902  77.1038666   3.3053353  17.7440662  77.3580475
  77.4427414   8.7404585  27.8506393  77.7398224   9.5701122  27.4769440
  76.5725555   8.9330072  28.1998348  78.1423264  54.0272446   1.7731793
  78.1449509  54.9827576   1.8299423  78.2554092  53.8423843   0.8408315
  24.8442230  68.7085190   6.5985713  24.5502300  69.3967361   6.0017781
  24.1081314  68.5796509   7.1967273  69.2998886  38.3046722  69.9194870
  68.8508377  38.9960899  69.4331436  69.5186539  37.6492386  69.2570801
  62.1158371  15.7107754  56.8283386  62.6450958  15.0060329  57.2017784
  61.4659538  15.2616196  56.2878380  71.2967758  36.7160683  66.0485687
  71.7701492  36.2383308  66.7296829  71.3901520  37.6368370  66.2929077
  41.7577553  22.4452171   9.4478502  41.3164253  22.0716782  10.2106924
  41.1048012  23.0226555   9.0523129  83.8834686  42.3419876  43.9316788
  83.4817581  43.2086105  43.9935532  83.6094131  41.8932991  44.7315559
  38.7636223  26.8118610  19.1456242  37.9333305  26.4758015  19.4831257
  39.3531227  26.0579987  19.1659298  61.9136848  60.7026024  52.9455299
  61.0004463  60.8671188  52.7106743  61.8745461  59.9707527  53.5612411
  39.6889153  33.1580048  60.6350555  38.8685379  32.8161888  60.2795563
  40.3094330  32.4349899  60.5431824  32.1316719  69.1725006  38.0155067
  31.6335907  69.9817810  38.1304665  33.0345421  69.4631729  37.8867989
  12.2523441  14.7937317  23.5714455  12.8183699  15.5359936  23.7833252
  12.8426266  14.0404758  23.5513306  22.7878742  19.7203560   6.5354238
  21.8370934  19.8301773   6.5490308  23.0216446  19.7714787   5.6086173
  13.4410934  39.5780067  25.0984917  12.6635761  40.1084976  25.2724972
  13.0984135  38.7024498  24.9190426  41.4264221  31.2042255  26.6425476
  41.3233223  30.7720585  27.4903870  40.5417366  31.4836330  26.4069805
  84.1677628  42.2484856   8.3623199  84.9474411  41.8300018   7.9973369
  83.4394226  41.7114143   8.0503836  12.4695606  28.5227947   7.1891985
  12.0416584  29.0852928   7.8347430  11.7483330  28.0814724   6.7405348
  75.3411636   2.0194771  82.5984726  75.5822754   2.7382569  83.1828079
  75.6716995   1.2345184  83.0353012  42.1594315  71.2051086  15.3171730
  42.3039398  71.0715103  14.3804226  41.2205734  71.0625687  15.4374113
  66.6148148  49.3936424  41.6438789  67.3135529  50.0456734  41.6973801
  67.0359344  48.6218033  41.2655182  55.0727119  62.7708702  33.8621140
  54.6636848  63.1762390  33.0975189  55.0365295  61.8312454  33.6831551
  42.7122002  40.4147072  32.0819359  42.0551033  39.8304672  31.7036209
  43.5175743  40.2085190  31.6075020  53.7912445  56.6523438  52.2314835
  52.9268646  56.9955788  52.4579086  54.1638908  56.3715134  53.0672493
  61.4839020   6.6247206  47.8912888  62.2491531   6.2426100  47.4616241
  61.6959877   7.5542846  47.9759178  25.5033131  57.4246635   6.2489376
  25.7662411  56.5449905   5.9782434  24.6949902  57.2913437   6.7439876
  71.4694366  30.5965004   7.0851541  71.2609177  30.2274857   7.9433951
  70.9012833  31.3631344   7.0096140  42.1981049  64.7580872  19.1376972
  43.0884933  64.8592148  18.8012238  42.2458458  63.9973984  19.7167549
  52.0337830  10.4863195   6.0813632  51.7482376   9.6199064   5.7914920
  51.9174080  11.0461168   5.3136940  61.5588074  70.8169479  83.3150864
  61.9227180  71.4061584  83.9758682  60.9640121  70.2476654  83.8033142
  79.4201279  68.5903549  29.3336678  78.8075943  67.9573517  28.9590397
  79.6001587  69.2012405  28.6190796  51.8320694  48.9410553  82.4742050
  51.4693680  49.7561874  82.8209610  51.1870918  48.2734566  82.7077637
  33.4576149  29.7350426  81.8885498  33.7686501  28.9263935  81.4816437
  32.5164337  29.6006336  81.9996567  20.2603416   0.7846059   1.6725507
  19.9279613   1.3288361   2.3863907  19.7901402  -0.0440883   1.7642422
  43.8156090  47.5553780  15.2969761  44.2498932  46.9721947  14.6744595
  43.5126572  46.9763298  15.9963722  78.9916458  45.0721855  76.1521912
  78.0405731  45.1151314  76.0530090  79.1250000  44.6839447  77.0168991
  79.1823807  21.5077515  41.3103523  79.2045898  20.7547398  41.9008713
  78.8899307  22.2347107  41.8601074  10.0146332  37.8618584  52.6675720
   9.1793203  38.1319847  52.2861099   9.9698277  38.1582985  53.5766068
  21.4551773  53.4883537  57.0554886  21.9717159  54.1909065  56.6607246
  20.6390457  53.9117165  57.3218040  13.8933573   9.5046396  23.1736069
  14.3285303   8.9803057  23.8458652  13.9002390   8.9486456  22.3944683
  41.5346336  12.1785288  82.8254318  42.0569038  11.4021912  82.6235275
  41.4290466  12.1554585  83.7765121  59.8349648  62.9427986  49.2177429
  60.1339989  62.6531334  48.3558235  59.7132301  63.8875847  49.1239853
  51.6081886  53.5539513  21.2693481  52.5583687  53.6689262  21.2822456
  51.4261513  52.9808006  22.0140553  15.3949566  21.6466846  68.7497406
  16.1065273  22.1826496  69.0999374  15.0288677  21.2044964  69.5156860
  58.7230988  53.2675018  57.2062340  59.5136681  53.6029472  56.7834930
  58.0833778  53.9733047  57.1122627  27.4862614  41.5209923  71.8461761
  27.9589367  42.3533363  71.8427963  26.5622215  41.7702332  71.8300705
  48.0374680  27.5317135  29.5265770  48.9570351  27.5187531  29.2611256
  47.9662247  26.8335629  30.1775322  70.2030029  69.4460220  37.7968292
  69.4933319  69.4111633  37.1554413  69.7727814  69.2952194  38.6384926
  68.7356949  11.3396721  37.3463326  69.1214752  11.6384001  38.1698380
  68.9297714  10.4028177  37.3168602  66.7618408   6.7067776  65.4143448
  66.8513031   7.6165733  65.6980743  67.0187683   6.7170577  64.4923325
  53.2771416  47.9958076  69.7027512  53.0341187  48.4796906  70.4920731
  52.6893806  48.3311501  69.0257645  86.9736938  37.5423965  19.7092876
  86.1484756  37.5737381  19.2252865  86.7393723  37.8048630  20.5994778
  40.1436081  14.3018198  65.8499680  40.1665878  15.2584133  65.8751297
  40.4999199  14.0313330  66.6961975  69.4030914  15.5292101  12.4539490
  69.6402969  14.6407824  12.7197685  69.1467819  15.4440689  11.5356398
  25.9278412  42.4169388  44.7471046  25.2442322  43.0855560  44.7039452
  26.2839832  42.4953117  45.6321220  50.3693810  45.7643089  19.8218002
  49.6243286  46.1800957  19.3879223  51.0705185  45.7898216  19.1706600
  21.7506886  12.5579424  87.7833710  21.0059719  12.0603256  88.1210175
  21.6488705  13.4299040  88.1648788  85.9831619  45.4333534  59.1577263
  85.6402359  45.7149925  60.0058479  85.4119415  44.7111435  58.8962746
  68.0417709  29.9457684  72.6711121  67.6272964  29.1730118  73.0548935
  68.9801254  29.7628784  72.7188873  41.6091919  51.5409927  44.8357277
  42.4983788  51.8117790  45.0643158  41.4067459  50.8380165  45.4530373
  43.7947617  43.0514183  37.8908195  43.8927994  42.1635437  38.2347641
  44.2918549  43.0476456  37.0728264  73.1431274  58.6724548  49.4678040
  72.7185287  57.9057961  49.0828629  73.7277908  58.9926071  48.7808533
  62.8218994  25.2612724  19.9709568  62.0715599  24.6690826  20.0213051
  63.2231293  25.2138062  20.8387070  38.4351654  52.1887245  23.6284180
  38.3125839  52.9457092  23.0555496  38.8246346  51.5213737  23.0634460
  72.4423599   3.4315181  40.1220131  71.6600342   3.5915942  39.5942154
  72.1108246   3.0343316  40.9273453  18.8229141  25.3910275   1.1456968
  18.6751900  24.6011162   0.6256470  19.7516003  25.3566074   1.3750196
  14.1009836  49.0243454   4.3731833  14.6745539  49.7368050   4.6554003
  13.9034634  48.5432549   5.1767821  10.6480331   0.3354905  21.3435535
  10.1847506  -0.2771095  20.7723064  10.0532770   0.4717990  22.0810604
  85.9594803  64.6307068  12.1373138  86.0345688  64.2582092  13.0158567
  85.1475525  65.1371231  12.1604748   5.3409390  49.5956345  41.0972290
   4.5947285  49.7695389  40.5235062   5.2773190  50.2619019  41.7815361
  36.7846298   6.4844818   9.4141026  37.7061844   6.2761431   9.5676098
  36.7557602   6.7888708   8.5070486  72.8722076  55.4351044  64.7586212
  73.0887985  54.5916328  65.1559601  71.9388199  55.5509644  64.9363708
   9.0520878  50.9210510  37.5324593   8.5881681  50.3518524  38.1464806
   8.7532873  50.6358757  36.6689644  38.9861183  61.3299408  69.8309860
  39.1115265  62.0124588  70.4902802  39.6066170  61.5509262  69.1364517
  57.8921280  69.5800247  58.5028381  58.4002419  68.8871918  58.0808830
  57.6650352  69.2217712  59.3609276  73.9761810  17.1243343  81.3060379
  73.6549072  17.2364082  82.2007217  73.2034073  17.2533760  80.7561340
  40.0311394  63.3921967  86.4551849  40.9407806  63.3820686  86.7529678
  39.5194054  63.2048264  87.2421112  81.1646118  52.2339020  10.4210005
  81.8080673  51.6007347  10.7392664  81.4402771  53.0676308  10.8019686
  46.3885841  30.6835346  32.6844826  45.6506271  31.2826691  32.7971268
  45.9900398  29.8134441  32.6661110  73.3503571  61.1282005  21.4316101
  72.5499496  61.5995178  21.2004356  73.3483353  61.1077271  22.3885899
  30.3524551  56.7989082  50.9492645  31.1553154  56.6063614  50.4649353
  30.5931702  57.5151176  51.5369148  37.0598030   9.6873655  35.6888542
  36.2982025   9.3518505  36.1617470  37.1280975  10.6019421  35.9629288
  81.0195541  68.2111206  44.4823265  81.8977203  68.1557999  44.1054916
  80.5437927  68.7991257  43.8956985  85.0876389  58.0414200  39.6264229
  84.4995651  58.7065773  39.9841461  84.8620987  57.9970627  38.6972351
  52.5475998  21.4235935  64.9058914  52.4656525  20.9762516  65.7481537
  52.9262924  22.2754688  65.1229935  41.1408615  40.3532982  18.2016296
  40.9163322  40.1176910  17.3014584  40.3602638  40.7955475  18.5352669
  45.2057037  50.1445274  22.5566158  45.4448738  49.2342072  22.7308197
  44.4645271  50.3129807  23.1384315  25.1662178  54.9285851  51.5026970
  24.6623154  55.2995872  50.7783546  24.8737087  54.0187721  51.5566978
  42.1342659  36.0143547  66.7540054  42.0653610  36.9286575  66.4791641
  41.2307358  35.6984978  66.7639313  21.7221870  24.5317593   1.2098022
  22.5358028  24.8257866   0.8001556  21.6748486  23.5978928   1.0051438
  40.3342972  38.6299286  39.0336456  40.1838875  39.5666962  38.9068336
  39.7998085  38.4023628  39.7944107  61.1992683  65.9794846  53.2766457
  60.6352196  65.7451859  52.5396347  61.9008522  65.3285980  53.2576942
  19.1905041  21.9768696   2.7352121  18.8433323  21.5913239   3.5396113
  18.5187035  22.6002922   2.4590631  74.5933151  44.9435158  55.7544708
  73.7910385  44.9563522  55.2325325  74.2892532  44.8732414  56.6593666
  84.5362244  57.8451614  67.5125732  84.5519638  57.3012466  66.7250824
  83.7017670  57.6353264  67.9319534  67.3010864   6.7543736  33.5241661
  66.3477402   6.8265872  33.4779053  67.5863190   7.5867043  33.9011269
  71.9349060  28.3609276   5.5051494  71.6662750  29.1049080   6.0441852
  71.5457993  27.5999813   5.9361801   7.2935715  53.8361053  52.8628693
   6.5802174  54.3423691  52.4742088   7.0838618  53.8043442  53.7962723
  24.6221581   9.2084742  89.2608490  25.2674789   8.5854692  88.9266968
  24.9314022  10.0610218  88.9546432  33.2813606  67.2222824  55.5451851
  33.5542259  67.0152130  54.6513748  33.6146164  66.4957199  56.0717506
  33.0632133  40.2205086  42.0658455  33.8384972  40.5841293  42.4935684
  32.6466866  40.9727669  41.6453171   5.7670031  12.6895580  17.4356270
   5.6680460  12.1443100  18.2161026   6.2805762  12.1527910  16.8320084
   6.5079761  22.6174030  63.2058945   5.7534375  22.4117737  63.7578201
   6.3523636  22.1307468  62.3964615  14.6474857  55.9868011  25.3255997
  13.8021116  55.5775833  25.1408997  14.5434361  56.3686104  26.1971664
  60.7700043  62.1959724  18.0919170  61.1912155  61.3588257  17.8969860
  60.8379173  62.6937218  17.2771397  72.5322342  55.6754150  48.7839622
  71.6414566  55.3377991  48.6903381  72.6969910  56.1463051  47.9670486
  14.3183289  66.0220108  78.4000931  15.1753016  65.7121887  78.1071167
  14.4634809  66.3117599  79.3007660  16.7577553  35.7883148  19.9042892
  17.5252056  36.1416969  20.3541470  16.3286324  35.2377434  20.5592365
  74.0251160  45.4547806  51.5632935  73.6150894  46.2345085  51.9376335
  73.4290771  44.7399635  51.7869072  84.6372604  20.3149986  75.2957687
  84.9692535  20.7322521  74.5008392  83.9141693  20.8758259  75.5765533
  38.1657486  44.9773560  77.1123505  38.1705208  45.7674179  77.6527328
  38.0702934  44.2595673  77.7383652  23.9692726  46.5062523  39.6461754
  23.6590862  46.3640900  38.7518578  24.6409607  45.8367653  39.7759819
  24.5642395  32.8831444  31.0575581  23.7192154  32.6361923  30.6818180
  24.6240120  33.8274269  30.9126720  13.8593178  41.7777977  23.6139107
  13.6606779  41.0682983  24.2249622  14.7912035  41.9528732  23.7449398
  57.7711258  34.7581711  23.1551552  57.4094543  34.2732430  22.4133530
  58.5721931  35.1556625  22.8137989  71.9890671  57.2487831  78.4713745
  72.2241211  56.3408165  78.6626282  71.4401932  57.5145950  79.2091522
  54.4779282  13.5530920  11.1451883  53.5279846  13.6132145  11.0440788
  54.6351509  13.7695789  12.0642347  72.9349899  49.1351662  10.4217024
  72.2541885  48.7398567   9.8772078  72.7569504  48.8074760  11.3032665
  40.0042763  65.7516556  85.1530762  40.7409401  65.7395020  84.5420074
  40.0942116  64.9402313  85.6528168  22.8427200  65.9549789  81.0112305
  23.1409740  65.3795090  80.3068771  22.3723221  65.3757553  81.6107712
   0.8693189  49.9174652  76.8992844   1.1291583  49.0475159  76.5961227
  -0.0831184  49.8680878  76.9808731  70.9643860  30.2360191  33.6358604
  70.3151779  30.4086895  34.3177299  70.5043259  29.6874466  33.0005302
  54.3430023  52.6536331  83.7617188  55.2215652  52.8484535  83.4355240
  54.4475708  52.5954018  84.7114029  68.5216522  20.1506901  22.5122585
  69.2671356  19.6375465  22.2005310  67.8936157  20.1235886  21.7904072
  46.7655411  38.4844513  31.8381386  46.4254036  37.7247086  32.3107147
  47.1079407  38.1241035  31.0201263  48.2551689  52.1897812  56.9387894
  47.6515579  52.8965073  56.7098236  47.8146324  51.7181511  57.6457024
   4.0931950  58.0972404  24.8785648   4.8151317  58.1935005  25.4996700
   3.3042321  58.1561966  25.4173527   4.5949121   4.6961484   5.4778900
   4.1302853   3.8752663   5.3150816   4.5243897   5.1787071   4.6542425
  44.9880066  36.4038239  32.7482452  44.6946144  37.2283516  33.1359482
  44.1796227  35.9294891  32.5539474  36.6210976  55.5952950  53.4339180
  36.3710365  55.1498795  54.2434273  36.3720169  54.9863205  52.7386894
  39.7465515  31.2159786  88.8454132  39.4060593  31.7309990  88.1139374
  39.0298615  30.6249924  89.0763397  39.1810646  50.3375969  74.9138412
  39.7420921  50.9806900  75.3473282  39.2310715  50.5635490  73.9850388
  21.6941586  45.6337891  48.7101822  21.3517647  46.5110550  48.8816490
  21.6940937  45.5589447  47.7559128  55.2752304  67.3907318  78.4383698
  55.2101364  66.4363174  78.4713364  56.1582985  67.5816345  78.7545700
  75.9244995  26.0145626  20.9498005  74.9808044  26.1071949  21.0804996
  76.0543594  26.1800957  20.0160084  85.0548401  61.2849998  77.7614136
  85.0236435  60.8392448  76.9149170  85.7126846  60.8025055  78.2620773
  67.2886276  20.5890522   3.3788261  67.0015640  20.0185108   4.0917859
  67.9343872  21.1694698   3.7817423  60.9189758  51.2160263   3.7610004
  60.1879349  51.0761757   3.1591287  61.2197495  50.3344498   3.9814301
  41.1829147  63.6627312   0.6859301  41.5710220  63.5045128  -0.1746340
  40.4619102  63.0356827   0.7424583  30.4072018  70.7729263   5.3588219
  29.9338703  70.6199722   4.5410242  30.8317184  71.6218109   5.2346883
  27.0543156  54.5148964   2.7395568  27.6226101  55.2454720   2.4955633
  27.5996761  53.7372437   2.6209240  13.0595970  46.4929962   9.2630091
  12.8510914  45.5746536   9.4344854  14.0158463  46.5192566   9.2294016
  52.0592995   5.6823163  73.8407288  51.2858353   5.7115774  74.4038773
  52.3642807   4.7769108  73.8995514  29.0467224  40.4603767  21.9298515
  28.5691624  40.6743851  22.7313309  29.0243893  39.5044518  21.8857422
  50.9753571  60.1664085  16.2171535  51.0290451  61.0829964  15.9465714
  51.0781631  60.1911049  17.1684952  40.8139076  52.4545631  32.2751579
  40.2799530  52.5108986  31.4827232  40.3384323  52.9759674  32.9219170
  33.9342575  34.7311020  86.7367935  34.4788857  34.4632187  87.4769669
  33.4798622  33.9313431  86.4719543  56.3253632  10.7795095   4.8265185
  55.6928253  10.2523613   5.3146200  55.9667358  10.8240356   3.9401577
  42.5560493  45.7609329  16.9387817  43.1071281  45.0479774  16.6159229
  41.6718483  45.3944473  16.9489517  84.6854782   8.9354801  29.5209751
  85.4359360   9.4292021  29.8515606  83.9934158   9.0930548  30.1631927
   2.6337483  11.0723848  68.1687927   2.3850839  10.3749857  67.5621338
   2.7385097  11.8458080  67.6146469  45.8322754  59.8029823  47.3734856
  44.8892174  59.9485168  47.4489059  46.2056046  60.6817932  47.3060455
   2.3365021  24.1380215  67.8241272   1.7172227  23.9943905  68.5397339
   2.9597433  23.4152908  67.8980408  57.0132942  13.4120722  24.9952831
  57.7890701  13.8511791  24.6465836  56.5067024  14.1120405  25.4071560
  15.6657038  30.1216831   2.8132029  16.4696350  30.2994556   3.3013873
  15.0321703  30.7511444   3.1576550   0.1279367  52.4079170  77.6765671
   0.5100563  51.5522652  77.4814301   0.5721947  52.6920700  78.4753952
   7.1759014  52.0040817  60.8457947   6.7023606  52.3650322  61.5952644
   7.5611420  51.1918182  61.1744957  83.7739716  30.2801495   6.9589376
  83.3529358  29.5045357   6.5882835  83.1713257  30.9971695   6.7616329
  78.9261856  32.5661621  15.8970547  79.8100586  32.8397675  16.1422863
  78.7706070  31.7722645  16.4086723  39.3941422  18.1132355  78.9279480
  39.1034584  17.8466015  79.8000946  38.6543121  17.9088573  78.3560104
  13.6400633  58.1602974  50.5624199  14.2010670  58.1860428  51.3375587
  13.3711882  57.2443619  50.4916725  35.7435341  54.6206360  78.0465927
  35.4770164  53.7632065  78.3782730  34.9234886  55.0458717  77.7957230
  58.5874252  60.8576050  56.2292557  58.3407173  60.0414009  56.6642075
  57.9643898  60.9421997  55.5075188  56.1373367  38.9078026  31.5766239
  55.3911438  39.4084320  31.9064732  56.8938675  39.2775955  32.0317574
  69.5216446  67.2478409  31.5233574  68.7382126  67.2466583  32.0733261
  69.6146469  68.1576843  31.2409344  15.4779167  63.1432724  71.3362808
  15.6889324  64.0465775  71.5723877  14.8809118  62.8491173  72.0242462
  77.6157379  60.8426208  83.8046417  77.9454117  61.6859665  84.1149826
  77.5135193  60.3184204  84.5989914  27.7279358  33.2570343  69.8826523
  28.2593422  33.7739143  70.4881821  28.3141537  32.5624123  69.5825119
  28.2463665  33.2370453  61.4971008  28.7268505  32.7064552  60.8616142
  27.8947430  32.6026344  62.1216965   5.6846485  63.8889275  47.3321533
   5.4670773  62.9632912  47.4421158   5.8378220  63.9889870  46.3926010
  12.7721148  44.7611008  66.8580017  13.3904133  44.6824417  67.5844727
  12.6755705  43.8678322  66.5278702  84.7674026  11.6356287  68.3200378
  83.9535141  12.0252180  68.0006104  85.2471008  11.3985538  67.5263596
  30.4245396  59.2453690  23.3898964  30.1373615  60.1441231  23.5511475
  29.8271122  58.9202232  22.7164021  63.0179863  51.0635834  50.5336342
  63.1767693  51.0921402  51.4771385  63.4510803  50.2613144  50.2420425
  76.8720169  15.6820326  85.8913269  77.1259842  16.1537895  86.6845398
  76.5446014  14.8401070  86.2078629  20.8592548  45.9883385  26.4652977
  20.0095329  46.4262810  26.5144234  20.8839836  45.6114922  25.5857487
  44.4363823   0.6717076  28.8767395  43.5368271   0.4358695  29.1034775
  44.8576698  -0.1624191  28.6694221  84.0743256  21.0677509  31.4824982
  83.1457520  21.0186768  31.2554226  84.4988861  21.3882637  30.6867237
  75.6116638  55.7978363  24.6772270  76.1196060  55.2488632  25.2746010
  74.7439041  55.3941727  24.6603394  47.4441490  27.7831841   5.5223246
  48.2375641  27.5921745   5.0220861  47.0474319  28.5262470   5.0676746
  21.8769627   8.7678137  77.4754944  21.2720375   8.5066538  78.1698227
  21.7450771   9.7115927  77.3853836  23.9246922   3.5309548  80.2870789
  23.6695213   2.8555655  80.9155426  23.9315529   4.3415236  80.7961578
   8.1088562  61.6028786   3.8417647   8.4081354  60.7122574   3.6588404
   8.8279238  62.0011978   4.3321862  17.7759075  32.9753914  16.3365498
  17.9727268  32.0741920  16.5921497  18.1078358  33.0484886  15.4417238
  26.9455376  27.8651276  17.5840168  26.2464924  27.5874500  18.1760159
  27.0725536  28.7929859  17.7819481  38.2716103  43.7811127  62.2205505
  38.4461288  42.8599854  62.0274239  38.6097069  43.9082069  63.1069870
  76.9435501  62.0120354  51.1011086  77.5741959  62.0831108  50.3845444
  76.0886078  62.0448837  50.6718826  42.6270447  64.6960068  59.1606178
  42.7245865  63.7714767  59.3885765  43.3102760  64.8555145  58.5094757
  82.9276657  33.6375351  12.4218483  83.7282639  34.1540070  12.3294334
  82.3176727  34.2201614  12.8742676  37.0695839  35.3107605  65.8954468
  36.6912003  34.9014702  66.6736069  36.6729164  34.8418121  65.1612930
  34.4976387  59.1446609  67.4691696  34.7054291  59.8176460  66.8209839
  34.8635178  58.3391342  67.1038055  36.1666565  13.5698900   8.9615345
  36.6895828  14.1109142   8.3698635  35.2673721  13.8694181   8.8281078
  43.1144714  47.6974564  34.2401085  42.3845596  48.2876129  34.4276619
  43.5249634  48.0653725  33.4575691  63.7074547  66.4237061  73.9650040
  63.9302826  65.6235199  73.4893188  63.8124390  67.1229782  73.3198471
  61.2135773  17.2781277  17.8747597  60.6370316  17.8672962  18.3612804
  60.6667061  16.5181427  17.6757984   7.0872951  62.9208031  13.0503635
   7.2057204  62.1161537  13.5550880   6.5979948  63.5001144  13.6344995
  47.5495300  62.3829498  83.0289841  48.2041893  63.0583344  82.8514862
  48.0462265  61.5647697  83.0393677  55.3176155  58.8699036  86.5157700
  55.1076508  58.4173126  85.6988831  55.4470901  58.1670647  87.1525497
  25.1282806  45.8356361  26.1467381  25.2922573  46.6139374  25.6142063
  25.2187996  46.1398773  27.0497742  81.9465179  17.1009865  66.1346054
  81.7161255  18.0280247  66.0733566  81.8983536  16.9035130  67.0699768
  78.6051025  51.9183083  30.2124290  79.3250198  51.5147972  30.6973343
  78.0517426  51.1829414  29.9492512  61.7752533   8.2164631  61.5613785
  62.7122421   8.3779335  61.6718826  61.6998787   7.2631879  61.5187569
  69.3009109  14.4436951  78.2904663  69.1068497  15.3222771  77.9638748
  69.1623535  14.5035124  79.2356949  55.7515984   3.9752162  16.6462288
  56.0228233   4.2547393  17.5206070  54.8085518   3.8302450  16.7228966
  60.0767326  15.6701460  88.7875824  60.2770691  16.5817890  88.9997253
  60.4062233  15.5536289  87.8964615  16.3254375  54.7415428  69.7220154
  17.2034740  54.8079872  69.3466949  15.7544489  55.1455994  69.0686111
  49.1491814  48.3730431  63.4306984  48.7764549  47.4953995  63.3467255
  50.0853996  48.2518005  63.2725029  14.3876638  28.3072338  20.5353508
  14.6905766  28.0200176  21.3967342  13.7917852  27.6154060  20.2480621
  68.1800461  52.0280800  30.3615990  68.2692337  51.1856003  30.8071365
  68.1608810  52.6723938  31.0692177  33.5785255   1.3333571   0.8303957
  33.0312805   0.5496834   0.8814742  33.5307083   1.5994457  -0.0878321
  60.1453018  39.3378029  11.1162996  59.2164497  39.5679359  11.1386509
  60.5777321  40.0396957  11.6026936  71.9821930  40.9524422  54.4740067
  71.0978622  41.2786102  54.6407471  72.0375137  40.8869057  53.5206566
  23.7457027  68.2596588  82.2830582  23.5787315  67.3763046  81.9543610
  23.1545391  68.8185959  81.7787323  64.3792191  63.0188866  23.2314873
  64.3431702  62.9664268  22.2764053  64.8058167  63.8570938  23.4093895
   1.7356145  25.8323250  35.8835983   1.6992567  24.9311275  35.5630417
   0.9776442  25.9112778  36.4628029   0.3303377  36.7000809  29.9843235
   0.3116231  36.4598465  29.0579491  -0.4243350  37.2779770  30.0971870
  63.9959450  70.1506424  86.7528610  63.8225060  70.8965607  86.1786194
  63.3503685  70.2334976  87.4547119  78.8943787  39.7957954   2.0895956
  78.4845734  39.4785843   2.8943734  78.6890106  40.7304688   2.0685570
  18.8847103  10.6877213  10.0517178  18.6140842   9.8879795  10.5027237
  18.6967583  10.5174770   9.1287212   8.7201414   8.0441580  71.9729156
   7.8131356   8.3425417  71.9055405   9.1794558   8.5149775  71.2775116
  13.9313107  67.9105148  61.7606354  14.6484766  68.1030960  62.3646355
  13.7455311  66.9815903  61.8978386  75.5399094  11.6069679  29.4212456
  74.6008377  11.7252483  29.5640106  75.9504318  12.2936125  29.9468136
  74.5178986  33.1326942  20.6267815  75.3264313  33.6293640  20.7525730
  74.4381180  32.6004829  21.4183750   9.9278708  68.7220840  30.0128670
  10.3124180  68.1448746  30.6725540  10.3725901  69.5601959  30.1394253
  84.8116989  53.5516739  31.8400040  85.5075226  52.9540482  31.5663185
  84.7250748  54.1676216  31.1124477  51.4310684  12.8824453  54.6591759
  51.3523598  12.2300892  53.9631386  50.5366554  13.0004892  54.9790573
  57.7154274  41.0773544  59.9782600  57.2046165  40.8110809  59.2137985
  58.6219749  41.0812912  59.6710358  10.2008333  32.8964119   2.2385399
   9.3939915  33.1890411   1.8147372  10.6891785  33.7023964   2.4062955
  37.0554085  47.2069702  73.7230453  37.5305176  48.0324364  73.8184891
  37.5433311  46.7256699  73.0548325  72.9648972  50.4578056  35.2528992
  72.2505035  50.0502319  35.7425385  72.5670013  50.7206764  34.4229507
  66.5198975  16.8610687  82.0182571  66.1262741  17.7304249  81.9439850
  67.3984833  17.0244541  82.3612213  17.3253193  44.4441566  67.8839722
  17.2498837  43.5042877  67.7190857  16.4828396  44.6884995  68.2670593
   1.1341130  67.0917206  49.0330124   0.7510716  67.8248672  48.5513382
   1.9708087  66.9298096  48.5971718  68.4012985  22.0052986   6.1344576
  68.4707870  22.5854836   6.8926048  68.8844070  21.2192440   6.3893209
  59.5274124  26.5761642  43.1391411  59.1974831  26.4703827  42.2468491
  60.4233360  26.8939781  43.0271263  80.3165436  18.6219254  82.9749146
  81.0528183  18.8352928  83.5481491  79.7934113  19.4230976  82.9486847
  12.0190573  57.0224342   4.7508874  12.6283779  57.6033211   5.2064466
  12.5763445  56.3487358   4.3612871  37.5044441  33.0603218  80.7648849
  37.1089745  32.2368698  80.4789429  36.8611107  33.7291527  80.5303268
  62.2663612  18.7264385  40.8746338  61.7830467  19.4491615  41.2750206
  61.6078835  18.0456963  40.7359581  39.0288124  69.5777969  72.8266678
  38.8006020  70.4590836  72.5308838  38.2405205  69.2617035  73.2681580
  16.2865028  59.6005630  71.1825714  17.2010956  59.3296127  71.1029587
  16.3090000  60.5521965  71.0819702  14.9331865  65.5575562  63.6806564
  14.0085173  65.4345627  63.8953476  15.2511082  66.1773529  64.3371658
  45.7428856  41.5769997  15.2091208  46.2193718  40.8341866  15.5798168
  45.6459045  41.3606339  14.2817526  63.8252563  67.4537659  13.0200043
  63.2928314  66.7411880  12.6664724  64.0568771  67.1645660  13.9025841
  15.8193693  17.2988644  31.0712490  15.2443333  18.0489655  30.9198742
  15.3701220  16.7841148  31.7416534  63.8663445  30.7512989  43.6056137
  64.4580307  30.3471794  44.2402992  63.8381348  31.6741180  43.8582764
  79.0753632  45.2629776  65.4797516  78.1723251  44.9533463  65.4098587
  79.5998001  44.4635429  65.5256348  65.4699326  53.7300835  65.6537781
  65.9288712  53.8266907  64.8193512  65.8392639  54.4151726  66.2109833
  14.8498001  45.3968735  82.8955841  14.4328194  45.1707001  82.0641937
  14.9783554  44.5565147  83.3354721   6.3370843  71.2444839  80.6808929
   7.0535278  71.6437912  81.1743393   5.9031844  71.9810333  80.2502365
  36.1846085  34.3609581  73.8628998  36.1539078  33.7585678  73.1196518
  36.8885231  34.9724922  73.6466446  82.7401276  24.4183464   8.3679829
  82.4937439  23.9409809   7.5757403  81.9152451  24.5474873   8.8360863
  63.3280754  49.8577080  19.9107647  63.7591476  49.9816933  20.7563629
  63.2473259  50.7411537  19.5512714   3.6936038  44.4609032  79.6561356
   3.1713915  44.6208572  80.4422226   4.4234099  45.0765343  79.7240372
  28.2542629  70.8176498  22.1610088  28.7701950  70.9404144  22.9578609
  28.7027473  70.1145020  21.6912498  76.7290039  31.0827675  81.1723022
  77.4910583  30.5371227  80.9779510  77.0637817  31.9791851  81.1478729
  70.6463928  24.0999393  76.2805099  71.0318832  24.8401375  76.7492752
  70.6541977  24.3680534  75.3616562  58.6413879  55.7319107   4.3983617
  58.9976540  55.9498024   5.2596574  57.8482780  55.2303429   4.5871305
  82.8602753  59.6357422  45.4850998  83.6362534  60.1298676  45.2206535
  83.0508347  58.7340736  45.2264214  66.8135147  16.4261780  31.8157921
  67.3645554  16.3694744  31.0351715  67.3108749  16.9767151  32.4205818
  43.5889702  37.2492256  63.7802467  43.1934776  36.3804855  63.7087746
  42.8829651  37.8077736  64.1055298  62.9343109  14.6511526  53.5813522
  62.0389748  14.9575186  53.7253838  63.4659309  15.1744890  54.1811256
   8.1141424  43.8610229  60.2485619   8.2029915  44.8037796  60.1087494
   7.5854259  43.7854767  61.0429077   2.4279056  25.6095867  61.8817482
   3.3694384  25.4385052  61.9036217   2.3469191  26.4451504  61.4218483
  74.2616806  63.6180763  51.5371628  73.9809036  63.4780807  50.6328392
  74.0839767  64.5439835  51.7025146   6.0988016  31.2268620   8.3063974
   6.3039184  31.4730091   7.4044161   5.6264148  31.9810371   8.6589603
  71.7095947   1.1477649  48.2642975  71.7959671   1.6283940  49.0875626
  72.5201950   0.6433992  48.1952286  21.9827919   0.9203544  87.4536972
  22.8226471   0.5193029  87.2300186  21.3291111   0.3436159  87.0583420
  76.5601501  60.4853973  53.5284576  76.8753662  61.0471153  52.8203964
  75.6400375  60.3273087  53.3172073  13.4418373  55.5583038  76.9437103
  13.2222824  54.7443886  76.4903107  13.5990324  55.2928123  77.8498230
  80.6396255   5.6443944  34.7555809  79.8977356   5.9546714  35.2747726
  80.5721664   4.6901217  34.7879028  34.8869019  50.5268974   7.0127473
  34.7516441  50.8398628   7.9071684  34.0698280  50.0814247   6.7887402
  66.0758209  44.0102043  50.0443497  66.1196899  44.9471169  49.8532906
  65.3351059  43.9225235  50.6442528   4.8501763  10.4911995   6.2155771
   4.4052801   9.9968767   5.5271411   4.9889874  11.3588400   5.8358889
  41.1361618   4.7378206  53.2442894  40.9716721   5.5304217  53.7551308
  41.9446564   4.3799744  53.6110535   8.9980383  38.4756622  86.3540039
   8.1634665  38.1426125  86.6838531   9.1171474  38.0332260  85.5135956
   4.6327672   1.7102381  84.4282074   3.7110457   1.4530045  84.4060135
   5.1085258   0.8871453  84.5395813  61.8024406  69.3000641  60.7750664
  61.1734352  69.6689758  60.1549950  62.4833679  68.9138184  60.2242622
  42.2000160  18.7770576  12.6946831  42.3619499  18.1760292  11.9675140
  43.0669632  18.9454231  13.0638580  73.7269211  31.6852169  71.7182388
  73.0821915  31.3199883  71.1122971  74.2308960  32.3026924  71.1881714
  77.0429611  14.7112980  57.0162086  76.1255417  14.6876650  57.2882652
  77.0145035  14.9938459  56.1021042  41.5817757  54.5039902  22.9151020
  40.6334915  54.6298828  22.9489422  41.8637619  54.5615845  23.8280087
  44.9927864  64.6929550  26.9151459  45.8076172  64.3330994  27.2655468
  45.2746468  65.3168869  26.2461948  48.6379128  63.5964699   3.9663560
  49.1691704  62.8147774   4.1178722  47.8355026  63.4409828   4.4645491
  76.3176575  28.9342289  34.0971069  76.9140549  29.6683540  33.9501381
  75.4456482  29.3012486  33.9517479  44.9735298  54.7784233  53.1977501
  45.1618767  55.6075287  52.7580490  44.9357414  54.1351242  52.4899559
  43.9171677  46.6105804  19.0398598  43.5676994  46.3402901  18.1907158
  43.9760780  45.7989960  19.5439396  33.6662178  40.1639748  87.7653427
  33.2848854  39.2885857  87.8325424  33.3791389  40.6120071  88.5610046
  56.7184906   3.1628053   9.7205029  57.4734154   3.5098810  10.1957464
  56.0288849   3.0976279  10.3811321  16.5149860  65.2968750  11.5724487
  16.0118656  64.5802612  11.1857195  15.9531784  66.0653458  11.4721622
  44.3593788  41.0249596  39.5361214  43.5125427  40.8154335  39.9300728
  44.8669434  41.4104652  40.2502632  30.3348198  67.5748444  88.3946838
  30.1221027  67.9933853  87.5605316  29.6998863  67.9365768  89.0129471
  33.3050728  14.8038664  72.8333054  32.5796127  14.6290636  73.4327927
  34.0520210  14.9787292  73.4057770  11.1306810  43.3574715  47.6349297
  10.9403143  44.2770462  47.4495277  11.9083462  43.3815651  48.1925049
   3.6060784  53.4898949  76.7882614   2.9491298  53.9523392  77.3086472
   3.2424846  53.4738388  75.9029541   0.4478862   2.4567916  58.0465775
   0.7474070   1.9098121  57.3204002   1.0616908   2.2692497  58.7567177
  80.9797745  43.8299904  85.3217010  80.4735947  44.4544449  85.8413849
  81.5873871  43.4349861  85.9470062  23.6037636  62.4694023  25.3283539
  23.0125351  62.9353981  25.9195633  24.1361408  61.9213562  25.9049416
  -0.1680888   4.7086072  73.7541351   0.1941209   4.0200229  73.1965637
   0.1938924   5.5201230  73.3982697  20.2609177  48.2187691  58.9895706
  20.8051662  48.7029305  59.6105461  19.3944855  48.1980629  59.3958931
  42.6613960  31.1678677  68.7289200  43.1337318  31.9865265  68.8803329
  41.8101959  31.3018417  69.1457443  58.6233711  23.1042366  69.2600250
  58.1145096  22.8520546  70.0305405  58.8759422  22.2733936  68.8573532
  50.2558670  54.2831268  11.7457485  49.8647270  55.1566467  11.7599792
  50.9199753  54.3292465  11.0579500  65.6884155  65.6869354  46.2546463
  65.3432617  64.9009857  46.6781845  65.1046600  66.3893661  46.5410995
  48.0871048  52.5550385  61.7042007  48.7850304  52.1249428  61.2100868
  47.8617668  51.9304008  62.3936081  81.4282379  19.8313580  65.9039536
  80.7808456  20.3071156  66.4243088  82.1359634  20.4613228  65.7678986
  26.6860027  70.2335358  15.1839151  27.1371193  70.8424454  14.5991459
  27.3869686  69.7079163  15.5694122  54.5470085  20.7461510  36.4619980
  54.9632416  21.6039162  36.5469589  53.6565132  20.8787937  36.7870560
  37.3420715  58.2821617  86.6383896  37.6465759  58.5456238  85.7700043
  37.3392639  57.3253517  86.6111221  42.1188850  70.8478470  50.5879250
  41.6474075  70.5228882  51.3549614  41.4306679  71.0822525  49.9653168
  60.4385071  30.3871536   7.9981003  60.2574921  29.7126713   7.3434720
  61.3638420  30.2699814   8.2131729  41.2372398  66.1352692  62.5201378
  41.0452728  66.7099075  63.2612000  41.2397804  65.2543259  62.8945351
  26.9165001   1.7978432  65.6564713  27.7777634   2.2006857  65.7667999
  27.0642719   1.0821127  65.0383072  64.4269943  42.3204231  87.0324249
  63.7852020  42.3419304  86.3225937  64.0072403  42.7959061  87.7493286
   1.6154660  11.1222239  15.9897156   2.2403293  10.9985704  16.7041988
   1.5287265  10.2547197  15.5945635   0.9607995   3.7792604   6.0795603
   0.8943854   3.0645611   6.7128263   0.9636476   3.3442762   5.2269101
  16.8807125  43.4716377  51.0798378  17.7221355  43.9172440  50.9814835
  16.4519482  43.9267426  51.8045959  85.6152420  66.7712784  18.5332584
  85.9040298  67.6647339  18.3473167  85.9419174  66.2556381  17.7959423
   4.2615995  61.7185898  38.6917839   4.4993901  61.9712906  39.5838776
   4.3278890  60.7636986  38.6876106  78.2669983  52.7317276  10.7775087
  78.3272781  53.6736565  10.6182261  79.1274261  52.4913902  11.1212082
  85.0721130  57.5386238  59.8670464  85.8487244  57.8441429  59.3982468
  85.0090866  58.1159630  60.6279297  59.7834702  65.5093231  47.6223297
  59.8706360  65.2076645  46.7181015  59.0207596  66.0875397  47.6094513
   2.4953279  55.9753647  12.0725298   1.7595086  55.9232826  11.4625387
   2.8502429  55.0867081  12.0961237  43.9585381  41.2889061  55.0327721
  43.8515320  40.3386917  55.0761032  43.1194153  41.6383553  55.3327446
  30.2239609  65.2092896  12.9083233  29.7334881  64.5237656  12.4547567
  30.7918167  65.5832214  12.2345638   6.4457331  21.0858459  60.7163124
   6.6209841  20.1569519  60.8668938   5.7921214  21.0959892  60.0170822
  27.4452057  51.5654144  81.1977539  28.1207676  51.2819214  81.8137741
  26.6208954  51.4159698  81.6607971  38.7916412  64.2693710  38.9019203
  39.5575066  63.7010422  38.9836884  38.6309929  64.5842667  39.7914505
  11.4194098  16.5600796   9.1573906  11.2173157  15.8486395   8.5497370
  11.7029114  16.1181889   9.9577589  59.6997986  43.2871361  50.5684814
  59.2407150  43.2430153  49.7297134  59.8533821  42.3726425  50.8058510
   5.7370620  18.4029503  64.6492615   5.7194858  19.3565578  64.7302246
   5.4004622  18.2309971  63.7698517  75.1200485  54.1600609  47.7149124
  74.2106171  54.4116592  47.8757439  75.0719528  53.2392578  47.4579315
  76.2869034  28.6882687  13.3718586  76.2306595  29.3954220  14.0145111
  75.6882553  28.0176430  13.7006636  43.6466484   1.2348425  57.2693291
  43.5877495   0.4956739  57.8746338  44.5607262   1.5142252  57.3206902
  54.7037849  18.5730305  71.0062332  55.4220810  18.6301060  70.3761368
  54.9746246  17.8873310  71.6167221  54.7981796  43.5690079  18.2259884
  53.8668938  43.6265182  18.0123825  55.0888786  42.7558975  17.8129749
  76.1060638  31.3612404  47.6827698  76.4741592  31.0706615  46.8483238
  75.9550858  32.2990112  47.5643539  38.2836380  70.6869431  31.5656834
  37.6976776  69.9466324  31.4081497  37.7526207  71.4587326  31.3692303
  82.5467758   8.1408176  18.1581936  82.6161652   8.0424023  19.1077881
  82.5052795   7.2437634  17.8268261  14.3035803  30.3445129  79.4181519
  13.3785906  30.4692917  79.6304169  14.3944759  30.6909828  78.5305023
   7.4496813  30.6167297  26.7149124   6.6638722  30.7335014  26.1809635
   8.0063066  30.0345230  26.1977711  38.9992714  29.4074745  56.4338646
  38.6981583  30.0033131  57.1198196  39.5617485  29.9468422  55.8780441
   5.2043233  17.8044491   8.1484423   5.0738139  18.3986683   8.8874292
   5.7844858  17.1232357   8.4884300   1.5950751  33.9070625  11.5086756
   1.3929434  34.8426781  11.5096159   0.7768255  33.4849892  11.7704973
  17.2651596  11.3233366  86.0612717  16.4084072  11.1641397  85.6652145
  17.4600010  10.5188713  86.5420074  81.0635071  47.0259247  76.4934311
  81.3261337  47.4075508  75.6558075  80.5179214  46.2765541  76.2546616
  33.8724442   1.3302342   3.7520721  34.2829247   1.3434693   2.8874547
  33.5323410   0.4400384   3.8421385  42.7392616  69.3182373  36.4287758
  42.2473259  68.5514755  36.1350060  43.5740318  69.2597198  35.9640579
   8.5101309  33.6549683  24.5651741   7.6428442  33.5926437  24.9653759
   8.9599504  32.8569794  24.8428574  49.6851082  59.2414665  75.1925430
  50.4634438  58.9107246  75.6409149  49.9739342  60.0557213  74.7804718
  15.9681196  57.2094307  21.4244556  16.1700306  57.3735771  22.3456059
  16.2417736  58.0080452  20.9732761  85.3165588  23.7675171   2.7496881
  85.4747391  22.8496494   2.5289452  85.1565552  24.1923809   1.9070004
  32.7160110  21.5539608  82.2490463  32.2127151  21.3156548  81.4704971
  32.4081802  20.9521236  82.9267349  85.6993332  68.5813599  50.3108864
  86.5550690  68.5083008  50.7335052  85.1993637  69.1648788  50.8816528
  52.8021469  37.8724976   0.2597928  52.1953239  37.9409065   0.9968957
  52.3222122  38.2432938  -0.4807531  84.5357056  14.7791281  73.4242554
  83.7515793  15.2749643  73.1886139  85.0073013  15.3505640  74.0302963
  75.4523163  28.1447182  24.9003353  75.2423935  27.2116985  24.9407978
  74.6114426  28.5849972  25.0241318  77.9022217  31.4643860  33.8650322
  77.1369781  31.9596062  34.1572418  78.3301086  32.0378304  33.2291832
  56.1364098  43.7161674  38.7469406  56.7311745  43.0796890  39.1436577
  56.3992577  44.5563011  39.1228600  86.5556793   4.6826038  12.3135490
  86.4775848   4.6714039  11.3596058  86.7854691   5.5875654  12.5244427
  35.5240440   8.0162916  85.3672638  35.3242149   7.9725251  84.4321823
  35.2807426   7.1542497  85.7047806  55.3240814  11.4259348  85.4372711
  54.5020866  11.3577585  85.9229736  55.3524551  10.6329222  84.9019623
  31.3801613  67.7662048  44.1926537  30.7172165  68.4236832  44.4035072
  31.5430183  67.8819351  43.2565384  38.0890198  25.6990871   6.8766179
  37.7751465  24.8592415   7.2118397  37.4418373  25.9510078   6.2178898
  10.1869411  62.1534195  30.2031326   9.9864531  61.2757874  30.5284004
   9.3582067  62.4711037  29.8446560  31.8938770  36.2186050  23.9752502
  31.6595898  37.0015793  24.4735394  32.8458786  36.1595840  24.0555019
  46.2873077  67.8894424  64.1138916  45.4227524  68.0385208  64.4967117
  46.8590126  68.5114059  64.5639420  77.1142120   5.3358946  62.6841660
  76.9656067   6.2564526  62.4680138  77.5024719   4.9636168  61.8923988
  72.3113251  64.3100433  80.0394974  72.2647247  63.4710236  80.4978638
  71.6373749  64.2508011  79.3623657   2.2697315  61.9193649  86.9924774
   1.5773567  61.2779694  87.1520462   2.8775411  61.8023338  87.7226105
  57.0061493  52.1359291  22.7416763  56.5520210  52.1938934  23.5822945
  57.9313049  52.2461624  22.9611416  59.9340286  55.1191139  50.7012215
  60.2321815  55.5952682  51.4762154  60.6767807  54.5657806  50.4596176
  71.7358093  34.1889648  30.9847183  72.0127563  35.0633392  30.7108536
  71.7742310  33.6641541  30.1851368  62.2337379  66.3084259  27.3729973
  63.1393852  66.5789948  27.5240784  62.2996902  65.5943909  26.7389374
  83.5637589   5.4675136  62.2967415  83.5595093   4.7697711  62.9520035
  83.3972702   6.2666149  62.7966919  21.2968330  56.9503136  15.7563543
  21.5122089  56.5937729  16.6181679  21.1193047  57.8769035  15.9180393
  71.5424957  69.1621017  49.2561531  72.2049561  68.4798431  49.3652306
  71.8517151  69.8855515  49.8013420  54.0887604  55.2130775  16.9823017
  54.8890343  55.3123894  17.4979858  53.4565887  55.7928314  17.4071217
  29.2369728   0.6451069  82.3531418  29.7479877  -0.1306093  82.5841446
  29.8508968   1.2027957  81.8753204  64.3190918   2.9277418  43.3757286
  64.3345337   2.2388086  44.0400810  63.4619408   3.3410516  43.4791641
  70.5539703  16.1514111  20.7950974  70.3589859  17.0544586  21.0455360
  71.3565826  15.9387560  21.2713566  61.0922279  57.2472382  75.9372177
  61.9026489  57.6712685  75.6549988  61.3734818  56.5983086  76.5822144
  30.7419167  45.2595482  77.3341827  30.6092777  44.6203690  76.6341171
  31.5377598  45.7282944  77.0829010  14.4911232  48.2191086  56.4104385
  13.9070292  47.9437370  57.1170082  15.3176470  47.7731590  56.5954285
  24.8292332  60.0972862  67.9697342  24.3955040  59.3650055  67.5316925
  25.7215729  60.0889587  67.6234818   2.9982255  21.8741798  75.4872742
   3.4623942  22.6156998  75.0987778   2.5742826  21.4419460  74.7458725
  20.7281361  31.6265392   4.5508823  20.6060371  30.6789913   4.6098528
  20.4997139  31.9521103   5.4215474  28.8299675  26.6515160  11.6408758
  29.5866203  26.5953541  12.2244473  29.1840496  26.9992676  10.8223858
  70.2951126  19.4565487  32.9143181  70.5739670  20.2793541  32.5124931
  71.0899429  19.1040039  33.3145523  59.4346657  63.4647446  53.2276230
  60.1762085  63.1296730  53.7316780  58.6769524  62.9937325  53.5743904
  44.7286034  64.4770050   7.4137735  44.1935310  65.0455170   7.9675951
  44.1636925  63.7282944   7.2225971  10.9487686  61.0071754  55.1849136
  11.3250742  61.7391357  54.6961784  10.1319218  60.8083267  54.7272530
  31.1810894  48.9777412  82.9939194  31.7513103  48.5482178  82.3562698
  30.7487736  48.2571449  83.4522552  40.1357841  67.1368484  72.9393768
  41.0136681  67.3909149  73.2239838  39.6458168  67.9586639  72.9115295
  84.0329971   5.9446254  76.6118240  84.4993896   6.6096649  76.1054382
  84.3183441   6.0869923  77.5143433  21.4541340  66.7023392   6.2289672
  21.4418812  65.9534454   5.6329522  21.1838970  66.3410339   7.0731606
  34.9207001  46.8577156  45.3858795  35.4664459  46.2273674  44.9157143
  34.4507332  47.3281059  44.6973343  85.3234711  42.1548843  48.1282883
  85.0997238  42.6007271  48.9452324  86.2653885  42.2938499  48.0297890
  59.1988754   3.1515160  57.8978844  58.9573898   2.4976742  58.5539398
  60.1114731   2.9538507  57.6873474  17.5510597   3.5954142  69.0944214
  17.5089951   4.5180073  69.3459854  18.2999802   3.2488201  69.5794144
  54.4609451  49.9964409  43.7849464  54.2330322  50.9221916  43.6996460
  55.2413864  49.8908043  43.2409058  45.6917152  57.1399841  13.0273170
  46.4739761  57.0013084  13.5612373  45.0220337  57.4192543  13.6516294
  24.7217865  15.1411781   2.2200370  25.6603127  15.0459328   2.3822947
  24.4279671  14.2598963   1.9892886  85.2627487  33.1125450  76.7021408
  85.0105896  34.0359344  76.7014923  85.4538116  32.9157906  75.7850723
  68.2148438  10.7681990  79.6689911  67.6737671   9.9807501  79.6107483
  69.0733948  10.4932022  79.3472977  56.4550629  60.5717278  47.9759865
  56.2969780  59.6300087  48.0423279  55.9114914  60.8546219  47.2406425
  77.6360550  31.7536850  63.3203125  77.1958466  30.9310207  63.1066132
  78.2234039  31.5304947  64.0424194  14.5451565  66.2715683  59.0505142
  13.9622993  65.5162430  59.1279831  14.1926470  66.9106369  59.6698341
  74.6719284  27.1029873  41.5903053  74.9223557  27.2562313  40.6792450
  74.4225922  27.9668217  41.9187126  85.8173523  15.6972294  53.8613853
  85.9686279  15.0934410  54.5885620  86.2586517  15.2898464  53.1160469
  74.3806305  57.0302467  62.9248085  73.7004700  57.6633377  62.6950111
  73.9197159  56.3522987  63.4189491  75.0719147   1.5829637  51.8642006
  74.1251831   1.6474681  51.9898148  75.1908493   1.6224188  50.9152374
  14.0452843  59.3968773   8.1076784  13.6799488  58.5208702   8.2316656
  13.3060074  59.9240074   7.8046389  49.5698891  62.1540451   9.8423128
  48.7505951  62.6060257   9.6405602  49.7179527  61.5798035   9.0909424
  22.9783096  64.8710022  58.4443855  23.2894878  64.4511108  57.6424561
  22.0391102  64.6871033  58.4621201  20.6848297  56.8954811  51.5971451
  20.5698013  55.9698563  51.8121338  20.9569798  57.3005981  52.4205818
   0.5936441  62.3350487  21.8621159   0.6295562  63.2697945  21.6591492
   1.1474968  61.9243431  21.1981888   3.5913389  57.0306625  44.6305237
   3.1227188  57.6855087  45.1480179   3.2986205  56.1910400  44.9849014
  85.6541672  41.7175789  68.3715515  85.0478668  42.4499207  68.2606201
  86.4977341  42.1307869  68.5555954  81.9699554  25.8810730  64.7795105
  82.2264633  26.6356621  65.3096313  81.3673401  26.2397785  64.1280441
  13.5977049  62.2136650  62.3186111  13.9940453  61.4920731  62.8069229
  12.7309008  62.3204041  62.7103882  62.7860451   4.6669812  70.0888214
  62.6852188   5.6180625  70.0499725  62.2683449   4.3409705  69.3526611
  73.3752747  25.3111477  11.7842693  72.7953491  24.6076279  12.0757837
  74.0448685  24.8688583  11.2624855  48.6049309  16.6875172  45.5727730
  48.5617447  17.1558475  44.7390862  47.8434486  16.1076508  45.5614738
  11.6583614  19.8231525  77.6332169  11.2454281  19.8383331  78.4966278
  11.5564308  18.9193783  77.3348312  66.6327133  64.3134003  41.8666191
  67.3596954  64.1749802  42.4737244  66.4229431  63.4382019  41.5406456
   7.0993543  64.2446747   0.9064132   6.8494096  64.6229248   1.7494335
   7.7342701  64.8632278   0.5451658  83.9717407  31.1431103  18.2475605
  84.0357742  30.4970665  18.9509506  83.5422821  31.8965302  18.6527176
  58.1080322   0.3100064   2.0656128  58.5944214  -0.4923518   2.2550242
  58.7307701   1.0150439   2.2426710  28.4170856  71.5510101  58.5594139
  28.9197636  72.2855606  58.9115219  28.8095379  70.7768555  58.9630241
  67.8175430  20.9322166  28.6140423  67.5933762  20.4296169  27.8308620
  67.3994598  20.4564705  29.3317471  62.6343079  14.5798607  25.6980667
  63.3854675  14.8991413  26.1981201  61.9298859  14.5099640  26.3423767
  52.6863670  10.5963755  60.7459869  52.5751991  10.7317028  59.8049431
  53.6336098  10.5339327  60.8687286  86.1074295  13.6152878  88.9596634
  85.5861588  14.3719740  88.6914520  86.9812622  13.9713135  89.1205750
  54.4812965  68.5167007  14.0523787  54.6930923  69.2479324  13.4721403
  55.3240852  68.0980606  14.2275400  45.2262306  69.9119797  70.0420151
  44.9127312  70.4249649  70.7868652  45.2591782  69.0124588  70.3675995
  17.1428928  61.5536880  24.4873772  17.5936146  61.0262146  25.1468143
  17.6078739  62.3903542  24.4911385  83.3003082  18.8270550  42.3818970
  82.6029587  18.7771626  41.7280998  83.3654404  19.7586384  42.5919914
  42.9303513  13.5102911   1.8224008  43.3769302  14.0533285   1.1728543
  43.5637321  13.4186544   2.5342059  17.5576077  45.8109398  85.9184570
  17.7297783  46.0730820  86.8228149  16.6915836  45.4042740  85.9477005
  67.6077652  60.0125351  20.0349789  67.6807861  59.4019470  19.3014374
  67.4951859  60.8692627  19.6231861   3.3933973  19.1835632  11.9208441
   3.4195435  19.0139542  12.8625345   3.4405951  18.3157253  11.5197697
  76.9193802  18.1834869  37.2775574  77.4922485  18.8361721  36.8749962
  76.6937485  17.5889854  36.5620918  46.6774216  44.8718491  66.8570251
  46.2833061  44.0218163  67.0528564  46.3953781  45.4378586  67.5755768
  70.3128662  54.1942749  46.2236748  70.0956268  54.1315651  47.1537857
  71.1403122  54.6750298  46.2028580  82.4166031  33.2942047   1.1379347
  82.4307632  34.2023315   0.8357095  82.7240906  33.3382721   2.0433307
  60.7528534  20.8049717   2.2745492  61.5183525  20.2861862   2.5217478
  60.2474709  20.8865604   3.0833535  85.9608994  18.6809483  41.1341324
  85.0842896  18.7026863  41.5179558  86.5065155  18.2722912  41.8060951
  38.3553352  17.6522102  65.9732361  38.4444199  18.5982056  66.0889511
  38.9110184  17.4495926  65.2206421  68.5105362  66.2636337  65.9969788
  69.2123871  65.9222565  66.5511475  67.7401810  65.7518311  66.2436447
  42.6928215  62.4085617   6.6574488  41.9385986  62.8617821   6.2806606
  42.7163658  61.5655174   6.2047262  52.6433754  63.7003937  65.9376068
  53.3733940  63.4777184  66.5152893  53.0304108  63.7288475  65.0626068
  16.1288891  11.1284971  77.4126053  16.7578449  11.0932570  76.6919098
  16.3919334  11.8944731  77.9228210  11.2824154  61.1553078  42.3358345
  11.2864056  61.1953659  43.2921867  12.0135860  60.5775070  42.1172638
  55.6648674  25.2060299  79.1388016  56.1632881  24.8136501  79.8556290
  55.9003677  26.1334953  79.1629028  41.7865753  51.3852272  87.0646515
  42.6644516  51.6187363  86.7629166  41.9315720  50.9302711  87.8942413
  64.3172684  57.4753418  78.9536209  65.0730438  57.2086487  78.4302521
  64.0929337  56.6973572  79.4641495  77.2467270  46.4953651  18.3090172
  77.0690765  46.2718887  19.2226524  77.7273712  47.3219299  18.3537178
  25.2879372  22.3857441  72.1088257  24.4555931  22.3965340  72.5813904
  25.1878471  21.6860275  71.4633713  79.0425873  35.4844322  28.1758595
  78.6014404  36.0248260  27.5204239  79.5844193  34.8829842  27.6650696
  52.6535912  30.9816494  19.3213921  52.6039696  30.3785553  18.5797405
  52.0472412  31.6875229  19.0970840  55.2766266  40.7673302  17.6831570
  54.8954926  40.3881874  18.4751301  54.6703300  40.5217667  16.9843445
  19.4426804   4.8847570  51.4293442  20.2634239   4.3941655  51.3853798
  18.8313313   4.3771296  50.8956795  85.8158264  27.3484039  31.8018990
  85.4961777  26.4598465  31.6453018  86.7416611  27.2354374  32.0170631
  18.6853180   8.3534822  26.7429428  17.8420811   8.6203423  27.1089611
  19.3348045   8.7541733  27.3207359  74.4385376  60.5667992  64.8494492
  73.5525360  60.6382637  64.4943008  74.5741882  61.3881836  65.3218460
  86.0475845  29.4642334  59.7611732  86.1051102  28.6513557  60.2633209
  85.1129456  29.5708027  59.5841942  65.1336746  10.8372030  27.1544285
  65.4975739  10.0071840  27.4624481  64.9587326  10.6916828  26.2246704
  75.1859665  37.7874298  78.7614365  74.8188095  37.0369606  79.2285767
  74.8252640  38.5504646  79.2129898  74.2928848  44.0000648  46.8513718
  73.9060440  44.3810654  47.6396751  73.8764877  44.4701805  46.1289902
   0.8085173  48.4894066  58.6430206   0.0045788  48.5539818  58.1275177
   1.0530941  49.3977318  58.8201141  41.2164955  29.5692520  83.7486877
  41.1152649  29.7660427  82.8174210  40.3441734  29.2951126  84.0317612
  44.1303101  55.2454262   3.7251444  44.0802841  55.0874290   2.7824001
  43.3132286  55.6972733   3.9359603  53.3733253   5.0907245  50.7894936
  54.2859993   5.1851578  51.0621452  52.9438248   5.8830652  51.1119156
  52.3557434  42.2715988  59.9983788  52.4391441  42.0334969  60.9217339
  51.6714363  42.9407463  59.9844475  41.5154343  70.4702835  73.5282822
  40.7241631  70.0954056  73.1415253  41.3813095  71.4167099  73.4781036
  48.5357628  17.8628693  69.4620514  48.1872368  18.6678753  69.8451004
  48.6365662  18.0643902  68.5317459   3.0986724  42.3101959  39.2187004
   3.3831859  43.2235031  39.1847267   2.5866981  42.1889191  38.4190712
  38.3809433  24.3349113  66.6683044  37.6144676  23.8121033  66.9037094
  38.6467400  24.7526264  67.4875107  62.6187286  18.7402687  22.5523853
  62.8346977  17.9869480  22.0027504  63.3401146  19.3536263  22.4123001
  20.8292656  59.7170563  66.7499313  21.4279366  59.0265541  66.4652710
  20.0622044  59.2484093  67.0789032  48.6754150  39.3101082  42.6758118
  49.4923553  38.8583908  42.4641762  48.6454086  40.0484428  42.0673752
  47.3104706  41.2894478  67.4468536  47.7617226  41.7831154  66.7620926
  47.2388420  40.4022179  67.0948181  81.5140152  11.0616837  87.6914444
  82.0143890  11.4836607  88.3898697  81.4712372  10.1410751  87.9500580
  85.6352768  68.9972839   7.8822136  84.8531799  69.5325775   7.7479668
  85.5822067  68.3218689   7.2060251  73.9726715  58.8418274  17.0302563
  74.5819778  59.4434433  16.6024284  74.1990433  58.8919144  17.9589539
  49.1861382   3.0197937  52.6488991  49.5474548   3.5783284  53.3371735
  49.5184021   3.3977511  51.8346634  81.6347656  37.3652725  11.9663849
  80.7122955  37.1843224  12.1467972  81.6256866  37.8640213  11.1494389
  75.2783890  37.4718781  24.3351173  76.0767212  37.9905891  24.4343014
  74.7668762  37.6670151  25.1202984  46.2249718  13.8748369  15.4248123
  46.2623138  13.4597445  16.2865181  45.5116806  13.4242954  14.9726391
  18.8134689  61.4900856  79.6765747  18.6109104  60.7594643  80.2608643
  18.7623558  62.2652588  80.2357864  70.1711044  69.2263565  87.0445709
  69.4045868  69.5019379  86.5418472  70.7199249  70.0091095  87.0928879
  55.4807510  67.6193008  50.7832794  55.6639900  67.2252502  49.9304123
  54.7047119  67.1564941  51.0991898  65.6051865  54.8124733  24.6206970
  66.2541885  54.3339653  25.1365070  66.1227188  55.3172646  23.9933414
  36.8885956  42.3588905  58.5392723  36.0058517  42.6803856  58.3558769
  36.7546463  41.4791603  58.8919296  71.9977722   2.1670308  51.0063095
  72.2821808   3.0757010  51.1045952  72.0407791   1.8055123  51.8915710
  71.9248581  12.8208885   3.8078256  72.7745590  12.8456917   4.2478547
  71.5367889  11.9902830   4.0830069  69.0994644  22.9526539  71.6494293
  68.3666992  22.9363995  71.0337906  69.8749084  23.0476170  71.0963440
  46.6228371   7.8152876  45.6059418  46.6511269   7.2317615  44.8476982
  45.7951584   7.6057339  46.0386848  48.6833191   9.2600336  16.1584072
  48.7272415   9.6388159  17.0363731  48.5377388  10.0095968  15.5811777
  56.7057457  27.3160915  43.7986870  57.6044121  27.4650364  43.5046654
  56.6329536  27.8182602  44.6103287  35.0012512  25.7182655   9.5674133
  35.2059822  25.9459686  10.4743128  34.0710030  25.9231796   9.4731722
  12.0631046  63.1627960  50.3031960  12.0946178  62.4425697  50.9328918
  11.1627903  63.1575584  49.9781761  74.8095703  37.8540916  53.9538727
  75.5694122  37.4487419  54.3716774  74.9069977  38.7889442  54.1349449
  71.9527817  44.1453781  54.8765297  72.0413437  44.2339897  55.8254967
  71.0539398  43.8428078  54.7470741  84.3452988  37.8869438  49.2288589
  84.0663986  37.4913063  50.0546417  84.8385086  37.1959267  48.7867393
  83.8341599  64.2987823  42.6998253  82.9598999  64.6879120  42.6779137
  84.0637817  64.2778320  43.6288376  24.1947937  58.2565727  85.4913101
  23.2845287  57.9644432  85.5394058  24.7072868  57.4832535  85.7270203
  55.3331032  12.9562912  32.8816071  55.3584023  13.0524292  33.8336296
  55.5553703  12.0380783  32.7276115  45.9410324  30.9941635  29.0817089
  46.1472778  31.2640591  28.1868057  45.9538040  30.0375004  29.0523148
  69.8266678  69.2029572  15.3164797  70.7051620  69.1931076  14.9365044
  69.3598022  68.5039597  14.8585749  23.4486656  44.4273834  36.2111969
  23.3548088  44.1080055  37.1086502  24.1318283  43.8753281  35.8307304
  79.6716003  31.1666031  77.1236649  80.3994904  31.6722202  76.7620621
  78.8899918  31.5632858  76.7390060  22.0421543  65.0256119  68.8213425
  21.2107944  65.0919876  68.3515930  22.3097401  65.9334869  68.9641113
  55.9588203  12.8415260  78.5279388  56.0638084  12.8863497  77.5775757
  55.8142662  13.7489834  78.7960052  72.7286530  55.9568253  73.1487045
  72.7695618  55.0043793  73.0626907  73.3523483  56.1614037  73.8454056
  48.7597427  60.1022758  31.7718697  48.4938126  59.7517891  32.6219711
  49.0461464  59.3354874  31.2756386  38.8979645  69.5090790  22.2378998
  39.2953682  68.7606201  22.6829929  39.4680061  70.2468796  22.4545250
   4.5225325   3.9066873  16.9478951   3.7241297   4.2448349  16.5423813
   5.0325665   4.6882148  17.1607609   9.0802116  30.2009144   0.3543782
   9.4368649  30.8195343  -0.2830707   9.8464899  29.8748150   0.8262982
  71.0512390  50.6322327  85.8952026  70.6874466  50.0509758  86.5630569
  70.5000458  50.4878960  85.1260529  82.5131531  64.1267319  24.2075634
  81.5655060  64.2140884  24.1047115  82.8537521  65.0065079  24.0456409
  58.1863937  47.2676735  64.2718048  57.8784943  46.8881378  65.0948410
  59.0845070  47.5427475  64.4560852  63.9445381  25.3865509  36.8873978
  64.6866684  24.8738651  37.2077599  63.8683243  25.1463718  35.9639587
  59.3971786   1.7030810  84.6001816  59.1037369   2.5694039  84.8823318
  60.3488808   1.7820598  84.5349197  43.7913284   2.9375019   2.9272995
  42.8527603   3.1200082   2.8824532  44.0166817   2.6249335   2.0510869
  47.5873833   9.5627699  80.3938980  46.7943039   9.8449631  79.9382401
  47.8236427   8.7358236  79.9736938  48.5474892  64.3781509  21.5100384
  48.4489021  64.9726028  20.7663040  47.6612740  64.0593338  21.6809464
   7.9108343  51.6442604  49.9914818   7.8487630  51.4254379  50.9212646
   8.7680035  51.3126144  49.7240829  85.3193970  -0.0109403  50.7148170
  85.0355911   0.8458790  51.0334854  86.2602081   0.0875316  50.5684929
  37.7205124  42.5754204  50.8761063  38.6385422  42.3865509  50.6817360
  37.2521667  41.7829742  50.6135979  27.2457180  14.8285561   3.2590599
  27.4824677  13.9415178   3.5298817  27.7564621  15.3987751   3.8337097
  42.8534012   0.7024280  35.9149513  43.1521454   0.8028615  35.0111275
  42.4360313  -0.1587531  35.9349594  27.2734222  27.8069496  69.6067047
  27.6459789  27.1534824  69.0147476  26.3346786  27.6199169  69.6096497
  48.3870506   2.4085691  65.0915527  47.4434586   2.3916910  64.9316330
  48.5085144   1.8598152  65.8663712  59.6415558  33.1773529  11.3315878
  59.2670555  32.3844643  10.9477863  59.8990936  32.9168015  12.2159052
  77.1322861  65.7360001  10.5208416  78.0283585  65.4050369  10.5820808
  76.6743240  65.3243713  11.2536898  50.9136086  14.6726828  62.5482635
  51.5119781  15.3704920  62.8151855  50.9927216  14.6409874  61.5948639
   0.5374613  70.9781876  27.6365147  -0.3702392  71.1609955  27.3938332
   1.0087104  71.7842636  27.4257851  71.4663544  64.0360870  73.2191391
  71.4365387  64.9920654  73.1811676  70.5998001  63.7818489  73.5364456
  48.0861473  25.2782707  45.7264099  48.3530693  26.1815796  45.5560646
  48.8255424  24.8949547  46.1982079  82.8791656  37.8524857  53.9429779
  83.7282715  37.8069496  53.5034523  82.2484283  37.5874023  53.2735481
  63.0114746  53.3959465  85.5658112  63.1661377  52.7676048  84.8604736
  62.0656052  53.3664970  85.7096710  69.1662064  42.4372330  62.5318604
  68.3753357  42.0968666  62.9500885  69.1506119  43.3759918  62.7181969
  81.8847427  50.4752769  68.2476578  81.7274857  49.5961151  67.9033051
  81.0330582  50.7579002  68.5808105  44.1632690   9.4183693   2.2063339
  44.2788200   9.9246407   3.0104296  44.0817184   8.5121336   2.5035162
  85.2090378  56.7322769   7.9316497  85.9125900  56.4077415   7.3695827
  84.6908340  57.3011856   7.3624029  51.5446091  63.3610497  32.4471779
  52.4782639  63.5324173  32.3240662  51.1381035  63.6513596  31.6306572
  35.5271988  62.0390739  20.9600792  35.5381966  62.9701500  20.7382603
  36.0466080  61.6228256  20.2721958  51.1576653  19.4122658  34.8452187
  52.0449219  19.0657234  34.7508049  50.9209862  19.2206287  35.7526817
  57.2026634  49.3988838  39.1955872  57.0467987  49.3160019  38.2548103
  57.9353447  50.0110435  39.2639618  55.6271019  39.9262581  62.2615051
  56.0602951  40.6430168  61.7980118  56.2234650  39.1837463  62.1652832
  77.8102264   7.3209686  78.9483337  77.1881027   7.2545757  79.6727600
  77.7101822   6.4976349  78.4704819   6.7181792  24.9637909  19.6900578
   7.4612575  25.3481865  20.1551456   6.8861227  25.1583290  18.7680054
  28.4928970  41.9300766  42.8548813  29.1940708  42.2372169  43.4295540
  28.2365742  41.0836487  43.2210693  23.1387386  47.3047295  17.1305866
  23.3141804  46.4295578  16.7848587  22.7943401  47.7930527  16.3828125
   6.6886387  39.7066650  18.1900806   7.1036158  40.4673157  17.7833443
   6.8762856  39.8021889  19.1238346   7.0731769  46.6948433  32.8978348
   6.3904371  46.1167870  33.2383461   6.8879828  47.5450859  33.2966118
  55.7986794   9.2691593  51.8641548  56.4006271   8.6716452  51.4204559
  55.1444893   9.4868622  51.2001724  75.2564621  22.6872921  66.5759430
  75.8821945  22.8546124  67.2807083  74.4819946  22.3422108  67.0201874
  84.4461823  60.7026711  65.3848495  83.7852020  60.4559479  66.0317459
  83.9415054  60.9685440  64.6161880  45.4994431  49.1848564  69.9851151
  44.6058273  48.8593597  70.0934448  45.7050552  49.6029968  70.8212433
  75.0558548  18.7504902  60.9034843  75.8037567  18.9300919  60.3337364
  74.5375748  19.5548668  60.8790894  50.8115997  62.8173943  77.0963058
  51.2196159  63.3853531  77.7498932  49.8715210  62.9546204  77.2131577
  66.2392654   8.6447601  79.3120499  65.6008759   9.3088417  79.0518723
  66.1232071   7.9388151  78.6761246  69.1291351  37.6116753  57.1861420
  69.5844116  36.8171921  56.9073067  69.6461563  37.9380379  57.9226227
  86.4068756  40.7760925   6.8685660  85.7699203  40.9574394   6.1774516
  87.2192383  40.5824814   6.4007921  12.6930656  59.8513145   4.8662314
  12.6948795  60.6245613   4.3020320  12.1639137  60.1072845   5.6216850
  82.5250931  47.6836281  45.3746796  83.0900879  47.0670280  45.8403130
  81.6379242  47.4464111  45.6446724  50.2978363  34.8834419  12.7289429
  50.2753181  35.6095772  12.1056862  49.4144478  34.8557930  13.0964928
  55.5650902  27.0854740  24.2382240  54.7173233  26.6429195  24.2790794
  55.3484993  28.0032463  24.0738564  68.5857773  11.9211025  53.2277412
  67.6515808  12.1296072  53.2222176  68.6378632  11.0662212  53.6551704
  51.1757622  55.1136627  49.6420059  50.4829674  54.7189178  49.1124382
  51.8234673  54.4167595  49.7470627  25.6372337  52.6384583  37.9897575
  25.5257549  53.5888329  37.9655533  26.5580921  52.5110512  38.2178345
  51.8915977  36.9978371  61.0891800  51.6188431  37.4258347  61.9007568
  51.9057846  36.0650215  61.3033981  53.7058144  58.1790199  22.5842209
  54.4489479  58.0690498  21.9910164  53.8093605  57.4800911  23.2299824
  56.0297775  53.4929581  63.5760231  55.7423019  52.7609825  63.0303078
  55.7885399  53.2371712  64.4663086  56.4758186  38.4427567  75.1802521
  57.3497467  38.7949562  75.0115967  56.3980217  37.6988411  74.5829468
   8.9393940  12.2175007  23.2559853   8.0828619  12.6006422  23.4451599
   9.4628811  12.4046841  24.0351887  18.9867191  40.6609192  54.9452934
  18.7401085  39.7815819  55.2319603  18.2368660  40.9652863  54.4341049
  83.4039841  67.7886505  79.2060471  84.2274170  67.6621780  78.7346649
  83.6186905  67.5968475  80.1189194  83.8142319  65.0951767  63.0452919
  83.0907135  64.6363373  63.4721642  83.4207764  65.4924316  62.2683601
  77.3469315   7.8502393  36.9086723  76.7625046   7.9728560  37.6567650
  78.2024689   7.6729407  37.2996330  15.9585333  61.7883377  49.6769066
  16.7798309  62.0360947  50.1015472  15.3741217  62.5298195  49.8347054
  34.2672081  15.3437271   6.1600499  34.8439178  15.1790113   5.4140544
  33.6392136  15.9908590   5.8390002  49.6671753  57.6093712  41.5386772
  50.5504227  57.9684448  41.6233902  49.2622604  57.7656250  42.3918266
  62.4587212  56.8233109  31.9102707  62.5141029  57.4384270  31.1789722
  62.6097794  55.9653778  31.5135784  50.2888603   4.7316041  88.6055145
  49.4693527   4.2433672  88.5263977  50.9647980   4.1106019  88.3340454
  80.9732208  43.9625473  24.8857880  81.8451920  43.8924980  25.2743626
  80.4852982  44.5206680  25.4913139  79.9132919  46.8181496  45.8326492
  79.1646652  46.5382118  45.3059273  79.5489883  46.9708061  46.7045479
  70.2816772  13.8582506   7.6072612  69.5729980  13.2164383   7.5616393
  70.0712433  14.4962835   6.9254522  70.5446472  44.6646919   3.0879743
  70.7145538  43.7232933   3.0543482  71.4138107  45.0655060   3.0764530
  36.7563591  63.7730141  87.4266815  36.3105392  63.2025871  86.8005142
  36.1618156  63.8175735  88.1755219  19.7311172  11.4847593   0.1247461
  20.1438065  10.9879246   0.8311982  18.8082733  11.2334394   0.1625734
  35.3878365  17.6642323  16.8658123  36.2095718  18.1486473  16.7862663
  35.5617218  17.0065670  17.5392170  44.3249321   0.7372903  44.8540306
  43.6881599   0.2974188  44.2907677  44.9461708   1.1378815  44.2459030
  17.0084343  24.1121216   5.2336860  17.6943169  24.7135754   4.9437723
  17.4734592  23.3027134   5.4454436  83.8516083  27.4160061  11.7836132
  82.9039612  27.3730927  11.6557102  84.2140350  26.8988724  11.0642757
  26.9860821  62.8052864  36.3104744  27.4346523  63.0060463  35.4890633
  27.6874275  62.5522652  36.9107437  35.0163994  36.6392670  70.0845108
  35.8021088  36.0939293  70.1231689  34.5971603  36.3970985  69.2587814
  78.6762848  25.1222191  61.5851326  78.0233688  24.9820824  60.8993492
  78.2351074  24.8598728  62.3930779  11.2028141  61.4995842  45.2465935
  10.3112707  61.6799850  44.9485359  11.4333763  62.2570000  45.7845497
  61.3250809  22.9289722  39.6547203  62.1443100  23.1441574  40.1005859
  61.1795044  23.6605949  39.0549126  70.3420181  56.2414207  24.3343754
  69.9428864  56.0601082  23.4834652  70.9440384  56.9665146  24.1669121
  49.9233818  65.6257553  11.9413872  49.5891228  64.9021149  12.4713469
  49.1621742  66.1875229  11.7957401  84.4940491  67.5898438  11.1071901
  83.7233734  67.9400635  10.6603775  84.8776703  68.3460388  11.5513144
   5.9537573  71.7238312  20.3215027   5.5717664  70.8483047  20.3828964
   5.5813789  72.2001877  21.0635605  48.1218224  55.1143875  36.8042908
  47.5331192  54.8448906  37.5092964  47.6246681  55.7693825  36.3143425
  16.1112080  62.8998947  21.6539993  15.4712057  63.0330963  22.3532047
  16.7381611  62.2754135  22.0189495  26.2384472  13.7227678  84.2466507
  26.1691990  14.6212416  83.9238815  25.3316021  13.4292421  84.3344345
   7.6506114  24.9622498  83.9953156   7.1608672  24.2052097  83.6739502
   8.5095682  24.8857574  83.5798950  59.4221344  19.7767944  55.4265823
  58.5863419  19.4913120  55.7956085  59.1795502  20.3466568  54.6967583
  55.8772545   6.0429740  51.8450928  55.2284279   6.3524203  52.4771538
  56.7070007   6.0684638  52.3216515  73.4649887  31.2538147  49.7116127
  73.9488373  30.9284286  48.9525032  72.5908813  30.8749104  49.6188965
  51.0220757  44.8981094  22.2276726  50.8071365  45.1049004  21.3181286
  50.1966591  44.5949936  22.6058788  83.2723007  68.0710220  42.7406731
  84.0224228  68.2135315  43.3179474  83.6062546  68.2582016  41.8633690
  74.9172897   7.8971381  26.1757107  74.0947037   8.3389025  25.9649220
  75.1009369   8.1516151  27.0800056  58.8187981  63.3526039  15.2025251
  58.1535110  63.9677658  15.5110703  58.5688667  62.5144997  15.5915537
  32.6279297   4.4870238  39.4224167  32.0452919   5.1083651  38.9857254
  32.9803696   4.9726734  40.1681786  69.5017166  20.6111012  69.2699203
  70.0186539  20.2215366  68.5647583  70.1240158  20.7251530  69.9882278
   1.7172387   4.4605322  68.5969315   1.0266910   4.1371188  69.1755295
   1.7679830   5.3976841  68.7850876  72.7615967  14.0936537   8.6896343
  73.1368484  14.6926098   8.0441360  71.8560715  13.9710550   8.4046278
  12.1211443  57.6689453  56.3428383  11.8659525  57.3876457  57.2214622
  11.6929703  58.5174675  56.2292137  13.9414835  22.0440044  22.7309303
  13.3309584  22.7776852  22.8030624  14.2408142  22.0699615  21.8221073
  25.1333027  53.6686058   8.8623095  25.1036110  52.8592033   8.3521986
  24.9585190  54.3603897   8.2242489   3.0530803  25.1776619  76.0526733
   3.5876410  24.7106018  75.4105453   2.5077298  24.4985390  76.4496841
   1.3041767  47.5317612  75.7416153   1.3894167  46.7568550  76.2970276
   1.5419413  47.2262955  74.8661728  61.6858177  14.4218206  70.1566086
  61.0203934  14.1566782  69.5216751  62.4797440  13.9669085  69.8755951
  61.8174706  62.0717354  88.0935745  61.7905617  62.6254692  88.8738937
  61.9630623  62.6826935  87.3712387  31.9902000  61.8656807  20.5631428
  32.7820702  62.1899261  20.1341419  32.2973938  61.1579094  21.1296406
  46.8297386  26.0186367  31.6226711  46.4425621  26.8940258  31.6184158
  46.0974808  25.4319477  31.4333935  79.2570419  22.7668457  86.7965012
  79.6421356  22.2140274  86.1165543  79.6137543  22.4228096  87.6154175
  76.2721939  49.7866783   7.1989555  77.0267944  49.7266693   7.7847977
  75.5690689  50.1325340   7.7487116  31.9818325   2.4501929  21.1796684
  31.2101593   2.1496029  20.6996708  32.6381035   1.7700547  21.0281639
  54.5398521   4.5227985  27.7682648  54.2327499   3.9616790  28.4803505
  55.1774406   3.9856257  27.2979908  85.9054489  67.5788498  44.8821182
  85.7534332  68.4718246  44.5727425  85.3081436  67.4771576  45.6231384
  53.0234566  12.4135799  17.1661015  52.5713730  11.6703701  16.7667370
  52.6878586  12.4447832  18.0619984   3.6498771   3.7946177  55.6857224
   3.4942212   4.2467160  54.8564987   3.0490639   3.0496547  55.6688194
  28.5457745   4.1916509  63.4724770  28.6524029   3.6319015  64.2415924
  28.0373631   3.6612988  62.8588982  54.2443199  68.6338120  18.0749435
  54.6093788  68.9640579  18.8958569  54.6517143  69.1734390  17.3974056
  82.9320297  24.1059074   5.2669868  83.7299271  24.5289135   4.9497161
  83.2270889  23.2597752   5.6034899  68.8369141  29.6122913  48.3443031
  68.3322983  28.8190117  48.5240135  68.7325668  29.7545433  47.4035034
  71.8057785  65.9908676  30.3856869  71.7475281  65.0804977  30.0957394
  70.8988724  66.2475739  30.5525856  76.8346405  67.0296936  66.0572739
  76.7482986  66.5620270  65.2265778  76.9061050  67.9508896  65.8072205
   7.9310303  70.4722519  25.8071594   7.4851546  69.9197464  25.1651592
   8.0915327  69.8925095  26.5517197  77.5837784   9.0206757   5.5304956
  78.0093307   9.2654390   6.3522196  78.0605164   9.5088501   4.8591971
  47.7826424  50.3364296  16.7948971  47.9163055  50.4471359  15.8535633
  46.8438873  50.1730804  16.8859386  67.3177338  48.0909348  61.0306931
  67.0839233  47.2410202  61.4037971  66.6342621  48.2645645  60.3834305
  47.7447166   9.4072943  86.1679001  47.6231308  10.3398685  85.9897079
  46.9182816   9.0031805  85.9034653  71.2602692  49.2670784  19.8953457
  71.2586746  49.1918907  18.9411030  70.5409317  49.8680000  20.0894566
  53.3255157  60.5420876  81.0298843  54.1846619  60.1401215  80.9013214
  53.4440575  61.1262512  81.7788391  28.6787720  16.0042324  77.2247849
  28.1437263  16.7146072  77.5787964  29.4600792  15.9944382  77.7776794
  70.8743057  40.1012573  76.4541245  71.1824570  40.1294937  77.3599243
  71.5753326  39.6579514  75.9763489  69.2389603  40.7641716  87.7922745
  68.4098511  40.7123795  88.2678146  69.8977280  40.4856148  88.4284058
  18.5438766  65.6735077  54.2708473  18.5917873  65.0193634  53.5736809
  17.7519016  66.1743011  54.0753784  71.0136795  44.8237572  64.6862335
  70.4753418  45.4109459  64.1555481  70.3842010  44.2451820  65.1166306
  13.9572535  47.5159836  47.3933754  13.0196486  47.4969749  47.2016296
  14.2372522  48.3934708  47.1328888  25.9433079  46.0933685   5.2370129
  26.3861179  45.9695206   6.0765448  26.3543568  46.8722458   4.8620238
  71.0357819  20.6337051  74.5121384  71.3047562  20.5965729  75.4300232
  70.1249008  20.3395939  74.5173874  41.2303085  44.1849976   0.8360620
  40.6796455  43.5482979   0.3804153  40.7849884  44.3332024   1.6703039
  65.1487122  40.1488266  26.5346947  65.1708832  40.7564964  27.2739372
  65.9819794  40.2884560  26.0848026  10.6454268  40.3487625  30.6907101
  11.0603094  41.1526527  30.3778706   9.8812761  40.2378082  30.1250305
  66.7811127  47.3920937  32.0014839  67.3269196  46.8792419  31.4054108
  66.1100082  47.7786751  31.4389820  59.9910049  47.4264793  14.9619360
  59.9631348  48.3040962  14.5808296  59.3649712  47.4594803  15.6852789
  20.9590149  68.9195404  21.9506989  20.6268883  69.3624878  21.1698513
  20.3695831  68.1753082  22.0728378  78.2002106   0.2590904   4.7602911
  78.3135986   0.6070067   3.8757970  77.6006622   0.8731635   5.1841769
  15.9836731  40.8181992  81.5683212  15.6889248  40.1162949  80.9880676
  16.7464733  40.4535294  82.0170746  29.8983784  54.9550095  85.7519531
  30.3322906  54.6375885  86.5439072  29.4986439  55.7843666  86.0138855
  52.8985100  19.5199471  61.3893089  52.9780312  20.4732208  61.4236298
  53.4270515  19.2089024  62.1242447  53.6488838  16.5755253   2.6065230
  54.4856682  17.0400982   2.6205292  53.8888130  15.6491776   2.6298778
  23.5610085  55.3227692  69.0181961  22.8466377  55.1024933  69.6160126
  23.8027248  56.2185287  69.2536011  77.0591431  46.0012321  55.0047073
  76.2537308  45.6601868  55.3935738  77.4167175  45.2642937  54.5094337
  17.9685345  65.1516876  27.3172989  18.1922379  64.5329361  26.6220722
  18.7063808  65.7609406  27.3422451  24.5836391  57.8470573  82.4188232
  25.4529037  57.4548264  82.5010834  24.5084000  58.4242058  83.1787338
   9.4622393  39.1567383  81.0744400   9.7435846  39.6803703  80.3241806
   8.5362539  39.3731232  81.1837997  11.1474228  34.3075600  17.6227608
  10.2596455  34.3323288  17.2657299  11.4519901  33.4175224  17.4458179
  76.6852036  28.7060661  62.9426422  76.3749771  27.9191093  62.4946556
  75.8963928  29.0909004  63.3246269  29.5585403  15.9919615  84.8990784
  30.3162861  15.7373533  84.3725510  29.9282532  16.2410030  85.7461472
  11.7734842  50.6723213   4.8548031  11.1259317  49.9694252   4.8014593
  12.6107531  50.2398911   4.6868320  16.8185463  12.8552141  14.2602243
  16.3487320  12.0236940  14.3241091  16.1995354  13.5060873  14.5910139
  28.5807838  43.2514191  35.7587662  29.1876068  43.5612144  35.0864372
  28.6652527  43.8874626  36.4690781  35.5126877  50.2979355  88.0893707
  36.2890854  49.9304085  88.5116959  35.0029755  49.5342064  87.8189240
  64.3226929  46.2823448  49.5625381  63.7991409  45.8428993  48.8924522
  64.6238937  47.0874100  49.1413765  47.8778381  68.4000626   2.1005099
  46.9666672  68.6259613   2.2875245  47.9604225  67.4879303   2.3787451
  56.0198021  10.4874344  15.7170506  55.7625351  10.8408623  14.8655024
  56.9707565  10.5934639  15.7429848  61.4576340   5.5895829  45.0406036
  60.5498466   5.6610656  44.7455826  61.6343117   6.4234610  45.4761086
  26.7164478  49.1006851  39.2675743  26.4428234  49.6696014  39.9870872
  26.0730724  48.3919563  39.2646599  59.5612373  69.8122025  76.9923096
  58.7643509  69.3934860  76.6669235  59.3055954  70.7202835  77.1544189
   7.2301698   3.1935096  68.1927795   6.4765363   3.5969918  67.7621155
   7.8180184   2.9573877  67.4752045  65.2763977  29.7765331  12.0036449
  65.8508682  29.2329426  11.4644518  65.2363815  29.3215790  12.8448629
  61.1678848  40.6788139  18.4882545  60.3054543  40.7958717  18.0898228
  61.7371979  40.4329300  17.7591095  37.3566742  16.2482109   3.5425265
  37.2158165  15.7843742   2.7171500  37.8868752  17.0082150   3.3027089
  69.0358734   1.1764984  75.9929047  69.6540451   1.2454660  76.7204590
  68.8949890   2.0805786  75.7117920  45.9579468  45.8304863  83.0495071
  46.2754250  46.0404663  82.1712418  46.6471176  45.2855301  83.4293671
  52.5651550  42.9521980   0.3869383  52.6323204  42.8047676  -0.5564524
  52.8555031  43.8560410   0.5093799   2.2433770  56.8434944  71.9804077
   2.1103556  57.3768768  71.1968002   3.1684179  56.9615173  72.1962814
  20.6126614  45.7786980  61.0899124  20.3924351  46.1015625  60.2161331
  19.9943256  45.0644989  61.2442360  67.0821991  12.8647776  68.6321259
  67.6514511  13.6320639  68.5733490  67.6665955  12.1211309  68.4848175
  50.4932022  17.2541313  57.6666374  50.0990105  17.7746792  58.3665466
  50.8688469  17.9010754  57.0694885  19.6020470  43.9878883  50.6825676
  19.8737907  44.6159706  51.3518219  20.1824074  43.2372398  50.8088264
  57.6903687   4.1365900  29.5634289  57.3691940   3.2723019  29.8204994
  58.2807999   4.3931408  30.2718105  63.0509071  55.2702255  51.3284721
  63.7682610  55.7707024  50.9396858  62.7868881  54.6574326  50.6421738
   3.9285288   1.6083543  66.2799072   4.1610460   2.4390647  66.6947479
   4.0574031   0.9536085  66.9661560   3.5344222  61.9797668  58.2254372
   3.5671837  61.4015846  58.9875793   3.7423968  62.8468552  58.5734825
  53.1713371   3.3225601  74.1398010  52.6412811   2.5373073  74.2763748
  53.9023743   3.0267105  73.5973206  17.8891125   7.6200256  82.5528717
  18.4524536   8.1430988  83.1231995  17.1035309   8.1544418  82.4367142
  69.6952133  60.5924759  23.4762249  69.2776794  61.2936020  22.9759045
  69.2788925  60.6319771  24.3372383  79.0137711   3.7071197  43.2083931
  78.6029205   2.8480282  43.3053093  79.2200699   3.7701144  42.2758141
  56.4431458  58.6099663  24.1320477  56.6512146  57.8850784  23.5425758
  56.9895935  59.3331833  23.8244953  50.2627106  63.5534706  24.0201454
  49.6062164  63.6022682  24.7150326  49.8445892  63.9690399  23.2660179
  79.1755219   6.3543015  41.6160164  79.7982178   5.6423836  41.7631874
  78.4691162   5.9537115  41.1093178   2.7951596  39.8668594  16.4607239
   2.6855867  40.0168190  17.3997326   2.6200085  40.7183800  16.0601425
  35.7323380  23.2157669  20.8985367  35.6074867  22.9962044  19.9752617
  36.5914764  22.8544312  21.1166000  73.2944107   3.4133945  44.6623039
  73.3548203   3.3001118  45.6108551  73.7090912   4.2597833  44.4952812
  37.8378792  33.2426224   8.0414705  38.2530441  33.9194756   8.5760212
  38.2821121  32.4328804   8.2928753  45.9304581  44.8181076  40.8451958
  46.6668549  44.5618782  40.2899475  45.4196701  45.4193993  40.3031807
  66.3452072  63.5814247  31.7234821  65.9692764  64.3717346  32.1111832
  66.1122665  62.8813705  32.3333130  28.8044910  20.2589436  75.0372086
  29.5846157  20.4840164  75.5441437  28.3382130  21.0885239  74.9341888
  79.0909500  63.2892227   9.7494678  79.8568573  62.7226982   9.6563892
  78.4050980  62.7116280  10.0844564  17.7231960  42.9227943  83.3378448
  18.4402885  42.3445892  83.0776749  17.4381790  43.3331909  82.5214081
   2.0526643  39.0854568  69.3944016   1.7276078  39.9813766  69.4832687
   2.5882750  38.9464188  70.1754379  21.3860245  27.3475838  78.1403732
  20.6748867  27.8322372  78.5594482  20.9616470  26.8656330  77.4305420
  80.6216736  13.6837006  56.3409309  80.9745026  13.2443867  55.5671463
  79.9164047  14.2353067  56.0024567  85.9913254   9.3569622  82.6269379
  86.6790161   9.2482653  81.9700546  86.4605942   9.5846395  83.4295502
  13.7988319  63.5057182  80.7946396  14.3741827  64.0003433  81.3782043
  12.9144964  63.7614479  81.0569077  29.6971111  51.5375061   0.1991362
  29.0732384  52.2586327   0.2827493  29.1510353  50.7529411   0.1492461
  57.4971466  37.7422142  87.7751770  57.7681313  38.0409164  86.9070892
  56.6055794  38.0757179  87.8757172  61.6584358  54.7274361  45.2238045
  60.7047157  54.8079338  45.2106628  61.8202629  53.8555946  45.5842705
  43.6929054  47.3784637  70.5044937  42.9516525  47.9385681  70.2741394
  43.5493469  47.1576385  71.4247437  57.6068726  67.5575790  28.7440281
  56.8286095  67.6972427  29.2835007  57.2970047  67.6635513  27.8445930
  71.1019745  39.3079529  67.3469086  70.2398758  39.6851845  67.1716385
  71.6803436  40.0650139  67.4395676  65.0492325  16.5605297  46.8129120
  64.2947388  16.6451416  46.2299728  65.6235580  17.2861233  46.5681763
  29.2581444  65.0995865  38.1476021  28.5047646  65.3494720  38.6825867
  29.8857956  64.7365646  38.7725067  19.2664299  70.9810410  81.7552185
  19.3397331  70.5421143  80.9077530  19.0850620  71.8951263  81.5366287
  64.5032883   8.8099689  49.0007362  64.8722763   9.3836069  49.6723175
  64.5280685   9.3326979  48.1992531  69.9569321  19.5854836  18.5987301
  70.3687134  19.9238453  19.3938255  70.6005096  18.9767380  18.2361355
  46.0413742  55.0207977  48.4508629  45.8683739  54.5440979  49.2626877
  46.1042976  55.9372253  48.7199936   2.9309413  12.6296177  10.2481861
   3.1953678  11.8785219  10.7793798   3.7489889  13.0894632  10.0595808
  35.3417130   2.7633295  83.4171448  34.4158897   2.6355288  83.6239166
  35.4630165   2.3200147  82.5775070  71.1313477  17.4891853  38.9239349
  71.4330063  16.6065502  39.1388588  71.5730286  17.6995430  38.1011925
  58.4586945  52.5395432   6.3931589  58.5950241  53.2534561   5.7702789
  58.7001724  51.7499008   5.9090304  16.8823929  47.7376366  75.6089020
  17.2159348  46.9691696  76.0719833  15.9302683  47.6538849  75.6606293
  52.6002617  52.4237137  32.5799904  53.5402145  52.5539665  32.7055054
  52.2225342  52.5508041  33.4502792  22.7317142  22.1700802  40.6990623
  22.8920422  21.5396118  39.9968987  21.9597187  22.6575451  40.4116020
  35.1350327  39.4774513  10.0237122  35.1708183  39.2184715  10.9445162
  34.4928017  40.1867981   9.9991999  12.4150629  42.0506554  41.9585686
  11.8383217  42.7896614  42.1521454  11.8201294  41.3334846  41.7395859
  86.5947037  66.4738770  53.2829704  86.6723785  65.5537872  53.0307121
  86.6542282  66.4661560  54.2382851  76.9816208  14.7250624  45.9830513
  77.7414322  15.2842693  45.8211594  76.2317810  15.3172264  45.9254227
  77.5083618  41.6364326  28.4799881  77.1894150  42.2495995  29.1422043
  77.6973724  42.1839066  27.7178993  20.1134472  50.8013725  26.3516560
  20.8672581  51.2379532  25.9549179  20.3803329  49.8853569  26.4286003
  68.2731094  19.6595535  61.4687538  68.3102951  18.8019352  61.0452728
  68.5635071  19.4963551  62.3661232   0.7695101  26.0176182  17.8899555
   0.2724442  26.1905537  18.6894875   0.2734867  26.4576950  17.1996479
  68.1577072  40.6939812  68.5968094  68.1369019  41.4302444  69.2081375
  67.2750015  40.3257599  68.6352158  79.9597092  66.6441345  70.0345688
  79.1441650  66.2311630  70.3184433  80.5770187  66.4683228  70.7446747
  39.2016983  25.9115524  87.0598450  39.8580437  26.4603462  87.4891052
  38.5806847  25.6930161  87.7546921  86.8280258  59.5205269  21.2818394
  86.0380707  59.7703972  20.8024979  86.8750839  60.1433067  22.0072098
  60.4185448  43.8622704  78.4627838  60.6513176  44.4407196  79.1890335
  59.7391586  43.2905273  78.8202438  84.9763565  45.4590034  79.7472458
  85.6688843  45.0314293  79.2434464  84.1905746  45.3546906  79.2106934
  35.0506134  59.6225128  50.4858170  34.8401489  59.7224236  49.5574036
  35.8585091  59.1092300  50.4943771  20.9129181  17.9512081  10.1455011
  21.2875156  17.2139549   9.6634569  20.2585773  17.5539551  10.7201843
  53.9815216  69.1879807  88.3806610  53.6597824  69.0638885  89.2735901
  53.7117424  70.0770035  88.1502533  68.6614151  68.7951355  61.1703110
  68.9264526  68.4016953  62.0016899  67.9429169  68.2428131  60.8622169
   1.7145933  51.1592903  58.8575478   1.3181130  51.8308907  58.3025818
   2.4756255  50.8574142  58.3616295  17.0455799  15.3238955  45.7926331
  17.1009693  15.7905989  44.9587555  17.8924122  14.8860750  45.8787804
  41.5362282  30.9493275  59.4318275  41.4559898  31.5146885  58.6636086
  41.7553291  30.0889187  59.0741692  61.2798004   8.9890308  78.4320145
  62.1874733   9.1196938  78.1576157  61.3416901   8.4279871  79.2050781
  34.8885040  44.9002647   4.8997540  34.4892006  45.6198807   4.4109392
  35.1216888  45.2849808   5.7446504  16.6743546  58.4927673  61.6381912
  16.0337944  58.8247452  61.0091400  16.7644329  57.5648460  61.4212112
  64.4594345  49.6965485  69.5265579  64.5604782  49.9032440  70.4556961
  64.6876678  50.5087204  69.0743179   8.0531816   4.4000993  81.1606293
   8.7454681   4.7990198  81.6877289   7.4453073   4.0325608  81.8022156
  56.6603012  13.6614628  71.5143738  57.3466072  13.0504484  71.7824783
  56.4413910  14.1412888  72.3131714  25.0412960  20.7783051  10.5370865
  25.6092834  20.9727879  11.2826061  24.6511593  21.6215172  10.3068333
  82.1691513  58.8285637  75.1577835  82.2371674  59.1728592  76.0483246
  81.8202972  57.9441528  75.2689133  21.7454281  21.7029915  45.9540253
  21.2374535  20.8982334  45.8512726  22.3240147  21.7199993  45.1916733
  35.1621704  50.0110321  66.7998505  34.4100647  50.6028900  66.8162918
  34.8354187  49.1977615  67.1846313  21.6988354  55.0155487  81.1292572
  21.2552509  55.3572960  81.9055786  20.9947891  54.8622322  80.4991455
  82.6123962  42.4315376  13.2904444  82.9349594  42.7913055  12.4641590
  81.6614838  42.4036064  13.1845226  54.2495079  27.7630596  45.9196091
  54.3990288  26.9791031  46.4480858  53.3547020  28.0282211  46.1323128
  36.7231941  25.3117104   2.9528189  36.3090744  25.6932259   3.7268891
  37.5991173  25.6973000   2.9352059  12.5553026  47.8101006  26.4842625
  12.0830669  48.3261871  27.1376228  13.3074322  47.4546585  26.9577541
  73.2410507  34.3747253  26.6552734  73.4928665  33.8709335  25.8813133
  72.6390457  35.0403061  26.3223763  28.9139290  40.3919144  18.0969810
  29.0364857  41.2223320  17.6369553  28.2762737  40.5899010  18.7828598
  69.5761948  16.6736717  87.2946091  70.1808319  17.1925602  86.7641296
  69.6873856  15.7775736  86.9769974  50.5290565  59.2933846   2.8308709
  50.7805939  59.7962036   3.6055558  50.6932526  59.8857574   2.0971339
  62.5328293  13.3898573  46.8009033  61.6975098  13.3561316  46.3347092
  63.1605225  13.6951513  46.1459007  84.0947876  43.8559723  69.0401459
  84.2583313  43.6899796  69.9685516  83.2098999  43.5234947  68.8896332
  58.6418152  15.8959274  77.7519455  58.7548943  15.6092100  78.6581650
  57.8709526  15.4191122  77.4442902   0.8286564   7.8275537  12.1214752
   0.0758893   8.4101048  12.2225094   0.9588096   7.7663159  11.1751442
  46.2290840  60.0179520  66.7411575  46.7435226  60.4489326  66.0586319
  46.7763214  59.2868080  67.0278473  71.5778427  25.3629971  14.3828192
  71.8003616  24.4351692  14.3063221  71.1573715  25.5778961  13.5502024
  86.8137894  42.9974327  39.6970024  86.8954239  43.9497108  39.7492523
  86.6596603  42.8208160  38.7689476   8.6451550  52.8502998  43.9578857
   9.0613403  53.5705032  44.4315186   8.3221540  52.2669830  44.6446457
  79.7084503  31.9219837  39.5950966  80.0412598  32.8099518  39.4647751
  79.1070862  31.7818451  38.8636856  67.1541901  52.8605843  22.6339684
  66.6877670  52.7395210  21.8069096  67.9068527  53.4065819  22.4067764
   3.4889426  18.7806034  61.5645256   3.8937469  18.2540779  60.8752251
   2.6308208  18.3787670  61.7001228  31.0991325  44.2686501  59.9177361
  30.4964867  44.1403389  60.6502571  31.9645348  44.3125153  60.3244133
   3.8712425  37.3673248  63.7666473   3.5725563  36.5898514  64.2383957
   3.1527593  37.5759392  63.1695747  45.4901581  26.1607227  24.0905800
  44.6924133  26.3536797  23.5980339  45.2532463  26.3236446  25.0035763
  73.6505508  18.5276031   2.0931659  73.4397049  19.0781059   1.3390294
  74.3208389  19.0187359   2.5682802  30.2801056   1.7938752  59.1604691
  30.9569607   1.3311119  59.6543808  30.7643623   2.4049594  58.6052170
  81.5365372  26.9745560  17.5896187  80.6869354  27.0326614  18.0266914
  81.4613037  26.2084694  17.0206871  72.7919235  38.4150696  14.6508427
  73.1895905  38.6886749  15.4774218  73.1863861  38.9886475  13.9938469
  75.9036026  10.0595875  46.7408104  75.5891724   9.3552446  47.3076134
  75.7924500  10.8544512  47.2624130  20.2064304  10.0510483  52.0137672
  20.4773273   9.3173857  52.5656624  20.2221699   9.6996727  51.1235313
  37.4181938  49.6588135  68.1881943  36.6102562  49.9599838  67.7725449
  37.3139153  48.7096367  68.2547073  77.2318344  43.3435059  88.7327271
  78.1612930  43.1221123  88.6751175  76.7869415  42.6305199  88.2745209
  74.4226685  23.0744591  18.9105148  74.0421906  22.2393341  19.1826096
  75.2471390  22.8353920  18.4870529  42.6699905  56.9124870  33.3343391
  42.6667328  55.9561958  33.2927742  42.9841347  57.1885757  32.4733391
   3.4032235  68.1036072  66.1041412   4.2235675  68.1763535  66.5919724
   3.6726885  68.0680542  65.1863480  81.5920029   8.3470078   6.9543762
  80.8553543   8.9280796   7.1439452  81.6134720   8.2913485   5.9990373
  78.9177017  20.8479767   4.6965671  79.3649750  21.5415382   5.1814938
  79.6250916  20.3134670   4.3358192  40.3878632  48.3574791  35.0728760
  40.4934044  47.7754440  35.8254204  39.4471626  48.3521233  34.8960114
   2.3224835   6.8913980  31.3757420   1.3807662   6.8451996  31.5408649
   2.5312946   6.0619068  30.9461193  53.5999527  30.9438782  14.5822716
  52.9231453  31.1291027  13.9312286  54.0718803  30.1896420  14.2292242
  41.8140678  41.5260963  61.7448959  42.0037308  42.2177048  61.1109123
  41.1359940  41.8977509  62.3091011  14.4671831  30.2652397  37.6067200
  14.3962393  29.9456177  38.5061874  15.3182678  30.7020798  37.5741920
  14.8108816  13.8818760  59.1291924  14.6315365  13.6240797  60.0334091
  14.0118771  13.6562405  58.6528358  53.4611893  23.9956970  65.3345566
  54.2052040  24.5955811  65.3875961  52.7222443  24.4998951  65.6751099
  78.3900757  41.3055840  48.3894386  78.6733627  42.1936798  48.6068420
  78.5365753  40.8043289  49.1916313  77.5880661  35.2986183  60.9369850
  77.0017090  36.0003548  60.6541672  77.3073654  35.0971298  61.8296432
  59.4896240  49.9447250  52.1965370  59.7632217  49.3134766  52.8620415
  58.6954498  49.5661469  51.8194466  70.4406128  13.2206812  33.3101501
  70.9930115  12.8604994  34.0039482  69.5784225  12.8352613  33.4660873
  22.7399769  52.5927010  31.9669952  23.0319767  51.8286819  31.4697609
  21.9056797  52.8353119  31.5653477  78.9664917  69.5622864  56.4315109
  79.7927551  69.4093246  55.9731140  78.3415833  69.7685776  55.7364120
  15.8307476  46.6865768  35.2970695  16.1532993  46.8659668  36.1802521
  16.6084538  46.7433319  34.7419243  62.0461578   7.8168793  25.7805595
  62.7347679   7.5904970  25.1554203  61.8633156   8.7410660  25.6112099
  64.9821854  63.6817856  16.5282974  65.9304657  63.6119843  16.4181671
  64.7198792  62.8345833  16.8884106  81.9348221  22.8816433  35.7007866
  81.0191116  22.6484108  35.5481377  82.0833511  23.6459084  35.1439476
  85.5120773  21.6156483  68.9147034  86.3428116  21.4125366  68.4847565
  84.8911514  20.9881763  68.5446167  24.2546024  28.1959915  69.3425369
  24.0092430  28.9895077  69.8183136  23.9994431  27.4796257  69.9238663
  66.3332596  59.1568184   0.6219218  66.5523224  58.2356796   0.7624536
  65.4374084  59.2424088   0.9480334  42.7117233  57.9364777  24.1143951
  42.6351662  57.6132317  25.0121040  41.8492393  58.3016815  23.9169598
  12.6919804  24.2259922  14.8533106  11.7625217  24.0357723  14.9804144
  12.7152643  24.8119507  14.0967770  28.8364105  51.2472801  69.4196014
  28.6070576  51.4377327  70.3291931  29.1740417  52.0757599  69.0792160
  27.7848911  33.6788177  87.8108978  28.7336788  33.6762619  87.6843033
  27.5621796  34.6015587  87.9340973  66.1653824  66.7260971  72.1620712
  65.2361374  66.9550858  72.1794434  66.4107819  66.7907639  71.2391281
  28.4896698  39.7836914   6.5099487  29.0360947  40.4421082   6.0808363
  28.3176975  39.1339989   5.8283620   1.4131080  61.3484802   4.9180102
   1.2698340  61.3288307   3.9717977   1.7013899  62.2433014   5.0980678
  83.3080597   3.5441720   4.3543935  83.6013336   3.2667890   5.2223101
  82.6492462   4.2165885   4.5277638  86.2628632  43.0344009  14.3711767
  87.0936813  42.6160393  14.1454601  86.4983444  43.7029724  15.0144453
  83.2264709   6.8788786  73.6944504  83.9195480   7.0602560  74.3292542
  83.6854858   6.5217676  72.9341812   0.7046317  49.5030022  10.5195160
   1.3899401  49.7803078   9.9114981  -0.0642804  50.0115509  10.2618618
   2.6256783  42.6435242  13.6529055   3.1362164  41.8412170  13.5438690
   2.4109755  42.6659164  14.5854473  31.6033707  43.0295563   9.8125153
  31.0923538  43.6865616   9.3398237  31.1148891  42.2150345   9.6934853
  21.2281837  25.9786396   3.9283664  21.3387623  25.3018341   4.5961533
  21.5223160  25.5647964   3.1169159  76.9126968   2.6104624  54.2334442
  76.9046097   3.4959209  54.5969391  76.9481201   2.7408798  53.2858315
  43.8365746  56.4639626  78.1993866  43.0127945  56.9492188  78.2456970
  44.3706741  56.9575920  77.5770569  75.2015686  22.2322750  88.3204956
  75.2413483  21.5400620  87.6605759  76.0118179  22.1334229  88.8204346
  68.4993515  47.5270271  13.9992504  68.4019394  46.8563309  14.6752033
  68.6120911  48.3433189  14.4862709  81.5665817  23.3946800  17.6104603
  81.7679367  23.2798901  18.5391769  82.4220810  23.4314194  17.1826649
  25.9412022  54.2116623  45.6656647  25.3294964  53.5033150  45.8663940
  25.4049625  54.8755493  45.2321510  70.1085739  70.4545441  84.4728012
  69.7438660  71.3035431  84.2229691  71.0565796  70.5846558  84.4487381
  81.8418884  28.6217670   5.7778249  80.9913101  28.1841297   5.8129344
  82.2715683  28.2487659   5.0081010  48.8649063  23.9321747  43.4403801
  48.6443100  24.4590664  44.2084618  49.6173515  24.3784142  43.0518875
  15.4808540  33.9458656   8.6488705  14.8734531  34.5536728   8.2271299
  14.9535513  33.5031128   9.3138170  62.5277214  28.6610985  19.4223213
  62.8036461  27.7446308  19.4087124  63.3448448  29.1564331  19.4787579
  84.3139954  32.7682076  60.5175171  84.0046921  31.9563007  60.1158104
  84.5865631  32.5109634  61.3982925  68.6073074  11.0254507   0.5292771
  69.4645615  11.1136751   0.1126705  68.0359344  10.6981497  -0.1654467
  54.1613731  10.9835348  36.4111977  53.5988770  10.2097416  36.3784676
  54.9127464  10.7567940  35.8632355  30.0967770  65.6862946  84.8955231
  29.3482189  66.2662430  85.0353622  30.2749176  65.3127899  85.7586441
   9.3930712   6.6519561  76.7622299   8.8033638   6.9293785  77.4633102
  10.2629652   6.9148679  77.0628891  19.0525246  50.5309677  63.8874054
  19.1271114  50.5656929  62.9337502  18.3027935  49.9580383  64.0483093
  46.6470146  57.3770065   1.6369175  45.8674927  57.0729179   2.1017926
  46.5633011  57.0039902   0.7593741  32.2376099   6.1511841   5.6553125
  32.8041611   6.2092009   4.8859730  32.8381691   5.9926634   6.3836179
  56.5304794  65.0333023  62.3120041  57.2499695  65.0218201  62.9432144
  55.7500725  65.1976471  62.8413353  86.0352554  57.5367851  45.2023354
  85.8863449  58.0124588  44.3851509  85.9837799  58.2079010  45.8829117
  64.4629593  62.2250328   0.6797679  64.8043060  62.9329720   1.2261568
  64.3602905  62.6192322  -0.1864305  62.2906609  47.9999313  16.7312603
  61.4744186  47.7076874  16.3255825  62.7789192  48.4109535  16.0178909
  67.7511826  64.1095123  16.1564541  67.8032227  64.1325455  15.2009487
  68.4921799  63.5656624  16.4236374  53.8278732  40.9159012  85.8732605
  54.3196297  40.5274429  85.1497269  53.2840652  41.5867348  85.4603577
  43.3276176  22.1616936  40.8670883  44.0316048  22.0994606  40.2215157
  43.7506180  22.5157394  41.6493607  77.3386154  54.0359306  45.5700111
  77.7786484  53.9761276  46.4179611  76.4146271  54.1586342  45.7877884
  15.6280489   4.5649629  13.3475189  14.7452335   4.8796053  13.1529207
  16.1743450   4.9428544  12.6583223  23.3574352   9.8657742  66.8917007
  23.9457226  10.5701418  66.6196442  23.7754993   9.0669556  66.5702286
  78.7268982  37.9370651  82.0189056  78.9746094  38.8410072  81.8245850
  79.5124054  37.5516167  82.4070282  80.9116135  69.3925705  38.4611397
  81.1966782  69.2157288  37.5646477  79.9598618  69.4729462  38.3983841
  51.2606316  24.2041759   2.7238872  51.9236069  24.0276737   2.0563972
  51.1492615  25.1546955   2.7053909  14.1187420   6.1758199  66.2965164
  14.0426760   5.2525187  66.5372620  14.3167191   6.1636443  65.3600922
  78.1036072  42.4949837  17.7971973  78.1110916  41.6830826  18.3041439
  77.7994308  43.1601181  18.4146938  51.6753616  50.0663376  21.9199219
  51.0619087  49.3323860  21.8850269  52.1122589  50.0540237  21.0683346
  79.2951279  18.3480072  58.1981621  80.0310364  18.3520279  57.5860710
  79.1698532  17.4243889  58.4160347  86.4383850  63.2103615  52.9570389
  86.6892014  62.6159859  52.2499008  85.6896515  63.6944580  52.6087761
  22.5710258  22.3828335  73.4559937  21.9754295  21.6433163  73.3351212
  22.5277157  22.5746098  74.3927841  30.1742992  21.8388290  88.5972366
  29.9429245  22.4510632  89.2957077  31.0498714  22.1099625  88.3213882
  48.9299583  10.6076078  62.1553345  49.2326393   9.7975626  62.5657501
  48.9157753  10.4107761  61.2186966  51.8390465   3.4537246  71.6472626
  51.0443611   3.9364221  71.8746567  52.5432434   3.9318275  72.0851593
  65.0301514  25.0941143  47.5770798  65.4591904  24.7778301  48.3721390
  64.3671188  25.7089424  47.8911057  72.3876648  16.4414577   5.4863038
  71.5889206  15.9504776   5.6791339  73.0815048  15.9540710   5.9304485
   6.4223990  52.2691269  83.1079178   6.3671441  51.4579659  82.6027527
   6.1282454  52.9491882  82.5019302  46.6937828  34.3585167  29.6974106
  47.4535408  34.7350349  30.1415234  47.0533257  33.9574242  28.9061546
  63.1573944  34.8932800  16.9004135  63.4040565  35.8034134  16.7359619
  63.8369865  34.3785553  16.4651566  37.9120674  51.5666313  46.8826027
  37.2457542  51.4199600  47.5539780  37.7368965  52.4508018  46.5604324
   8.1059389  27.8147030  89.1796417   8.0560255  27.8777847  88.2258224
   8.2392969  28.7161446  89.4726410  40.1872597  28.5385265  61.7469749
  40.1574173  28.7996826  62.6673775  40.3498306  29.3534679  61.2719269
  51.2256966  26.9129601   2.2488711  50.8013611  27.4415970   2.9246783
  50.8621674  27.2396259   1.4258469  74.5782852  52.2187042  59.9946480
  73.9582901  52.7252388  60.5193062  74.6333008  52.6928368  59.1649437
  57.6265907  11.0772896  29.0357227  58.3568115  10.7507744  28.5099850
  58.0184669  11.2933989  29.8818684  11.5950241  63.0399513  26.6592674
  10.7636175  62.5672264  26.6983109  12.0311804  62.8259544  27.4840126
  27.9390640  68.1527328  24.3491650  28.2777843  69.0476303  24.3748398
  28.2046680  67.8206177  23.4916191  58.1524315  42.9736443   9.4330797
  57.4990730  43.0335960  10.1300449  58.4925385  43.8641739   9.3463688
  68.4440460  13.1553755  22.0811806  67.6112061  12.7161694  21.9088364
  68.4129257  13.9471188  21.5441475  31.2334957  62.0081825  12.2529593
  31.9472504  62.5152855  11.8661385  31.2699509  62.2168312  13.1864309
  51.3558235  30.4107342  65.9034958  50.4722595  30.2935619  66.2525253
  51.9245567  30.3686142  66.6722641  52.5932350   5.8659806   4.7042890
  52.2851677   5.0830216   5.1606889  53.4455948   6.0527830   5.0977654
  54.5209656  41.2449341   5.6607924  55.4106674  41.3449745   5.9993939
  54.4094200  41.9811363   5.0592980  79.8479233  56.6274567   5.0438795
  78.9027023  56.5889854   4.8979125  80.0700455  55.7682571   5.4025784
   1.0602094   1.6361357  71.1283264   0.9160423   1.3074212  72.0156784
   0.5216274   2.4256353  71.0749283  67.0094070  32.9413300  39.7842216
  67.3940887  33.3820114  39.0265579  66.1227951  32.7137451  39.5042915
  82.9747543  43.2901726  87.1560059  83.5417480  43.8348846  86.6100769
  82.7170105  43.8621368  87.8789520  36.5465279   9.7805281  45.0544815
  35.7763367   9.8993845  44.4986877  36.9643250   8.9875879  44.7184410
  81.8772736  57.9575310  24.2227249  82.3288956  58.5101700  24.8605804
  81.1070099  58.4657059  23.9683857  52.2919731  42.9393387  79.2331848
  51.7121086  43.6993446  79.2820053  52.5825768  42.9179726  78.3214111
  78.6415558  67.9920502  34.2996979  77.9063644  67.4592972  33.9965591
  78.2752838  68.8706818  34.4001389  38.1017609  11.6679049  15.5961046
  37.7032509  12.3178082  15.0172710  38.9333916  12.0609541  15.8609362
  26.2264500  24.3286705  83.2378769  26.8532448  23.9472332  83.8525848
  26.4360161  23.9203682  82.3978729  55.1871452  38.8533897  11.3354187
  54.9504395  38.1044922  11.8825541  56.1436310  38.8341904  11.3039188
  62.1023026   3.1011236  72.5937576  62.3180962   3.7190375  71.8953018
  61.3015060   2.6709039  72.2939835  75.3565140  54.6553001  83.1052246
  75.8005753  55.0844994  82.3739014  75.5763626  55.1916237  83.8669662
  48.1517334  55.6261559  83.7047501  48.2622108  55.4786491  82.7654572
  48.9655380  56.0495491  83.9780502  71.9213104  27.2871342  64.6838303
  71.4144974  26.5617485  64.3188705  71.3390121  28.0438633  64.6165619
   1.1972271  23.0266190  70.3257751   1.0618087  23.3324318  71.2226486
   1.3299886  22.0826092  70.4120865  57.2366943   3.8546095  66.4895782
  57.8165741   4.3705177  67.0497665  57.4672470   2.9451542  66.6792297
  23.9082603  52.7454071  52.4577904  23.5446091  52.1638527  53.1254654
  23.1585693  53.2544708  52.1494942  62.7641754  13.7178192  17.5297337
  63.0675659  14.4710073  17.0228863  61.8173294  13.8406401  17.5978107
  43.3967552   5.3836493  60.9037437  43.6428337   5.9460926  60.1693459
  43.3596039   4.5034761  60.5293808  59.0201073  14.9051819  34.7520943
  58.2656631  15.3749399  35.1075897  59.7166100  15.0513201  35.3922234
  46.9132156  39.2424278  16.5491028  46.4992409  38.3943214  16.7090149
  47.3090782  39.4777451  17.3882408   9.2510529  65.0199585  77.6019897
   9.3031359  65.8842850  78.0099792  10.0213099  64.5544434  77.9279327
  26.6748772  65.4962845  32.6941872  26.1047440  65.8559418  33.3737640
  27.3525925  65.0223770  33.1762123  61.3592377  30.7601185  66.3087845
  61.6482162  29.8994579  66.6120758  62.1010208  31.3382988  66.4868164
  71.2957611  35.1773338  38.9148483  71.8965454  35.1347160  39.6588058
  71.6760178  34.5855064  38.2657089  23.8742867  50.7566376  37.3780899
  24.1644936  49.9661293  36.9230003  24.6810970  51.2392273  37.5580826
  10.8869858  32.5715027  14.0753479  11.7504883  32.9814491  14.0249596
  10.8379660  32.2250214  14.9662914  68.4993057  20.7412319  66.2847290
  68.1370544  20.7037067  67.1699371  67.7347870  20.6926632  65.7108154
  45.5054932  41.9988708  25.1086369  46.3885307  42.2257843  24.8171196
  45.4160843  42.4290123  25.9590569  26.5698433  26.1604996   3.1039338
  25.7262115  25.9191685   2.7214713  27.0141068  26.6521568   2.4131844
  18.2269115   7.5369258  54.2790642  18.6771259   8.1216879  54.8886490
  17.9505520   6.7957563  54.8180695  41.5696983  25.0020485  77.5792999
  42.1336136  24.8269005  76.8259354  41.5286903  24.1678257  78.0468674
  57.6426353   6.7494044  14.9837580  58.4202995   6.1916084  14.9655638
  57.5232162   6.9637499  15.9089756   4.4229493  15.7964640  80.1568146
   3.7770312  16.3350925  79.6997528   5.0106335  16.4277878  80.5718918
  71.9870987  48.2414207  26.5850391  71.4042358  48.5873947  25.9091625
  72.0695724  47.3108063  26.3767490   5.0548148  32.5920029  64.8067474
   4.9872050  32.6499939  63.8536987   5.4251804  31.7242565  64.9682312
  22.7367229  56.8956833   6.7468534  22.7063122  56.4846191   7.6107597
  22.0176296  56.4895515   6.2629175  35.9302940  43.7801285  74.1376801
  35.9045944  42.8232727  74.1387482  36.8044891  43.9966087  74.4619522
  69.4493256   3.6200511  70.8363342  68.5819473   3.7643323  71.2145767
  69.5762405   2.6724384  70.8827362   2.4569595  29.0207863  29.4682465
   1.8843328  28.2545586  29.5032463   1.9611330  29.7106819  29.9091892
  34.5948753  45.2043953  71.9467468  33.9998283  44.4695091  72.0953979
  35.2075272  45.1688843  72.6813431  37.8711090  60.0014877  22.2947407
  37.5731773  59.1227036  22.5296917  37.9723320  60.4521980  23.1331005
  61.2553139   8.7365484  73.4026031  60.8809509   7.9532585  73.8057632
  61.0975876   8.6222553  72.4654312  18.4820213  60.1327782  26.9844055
  19.1289387  59.5390320  27.3654537  18.1980133  60.6795731  27.7169247
  78.7379379  30.7543621  17.7271786  78.7874451  30.0759506  17.0537262
  77.9255371  30.5664234  18.1972008  19.1126442  66.2290344  88.6360474
  18.3265934  66.7687607  88.7200317  19.8238468  66.8585510  88.5171585
  51.0061874  44.3566513  69.1249542  50.3957520  44.3809166  68.3880692
  51.0033302  43.4423676  69.4083405  51.8946190  30.9395599  80.8817520
  51.3514633  30.9370499  81.6699142  52.6583824  30.4120693  81.1155319
  16.3885937  26.2944241  87.1735306  16.5054283  25.3444481  87.1622314
  15.6791420  26.4410629  87.7991562  51.5890236  36.0175362  24.1155357
  51.9770737  35.1430092  24.1447639  50.6633759  35.8755760  24.3136559
  40.1785927  49.8837395  66.5291595  39.6847610  49.9512024  65.7119598
  39.6439362  49.3178596  67.0860825  71.9490356   8.4262800  39.2167587
  71.9811707   7.6747746  38.6247787  71.6780167   8.0575123  40.0574684
  72.8891296  10.8292885  66.1661072  72.7153778  11.7373476  65.9181747
  72.0921478  10.3580227  65.9232864  34.7157784  45.7657394  58.2742653
  34.4671745  44.9397430  58.6891785  35.2746887  45.5070114  57.5415230
   1.6748179  28.1973991  81.7214432   1.0847071  28.6227570  82.3435974
   2.4859447  28.0657215  82.2123260  80.6047974  28.6939964  46.7716789
  79.7643433  28.5218506  47.1962280  81.0623856  29.2795753  47.3749542
  61.8095207  40.5895767  49.9109688  62.5540962  40.9285507  49.4140472
  61.1893082  40.2967529  49.2432709  65.8271866  10.8500957  44.7080994
  66.0171509  10.2380552  43.9970779  66.3388367  11.6306076  44.4953804
  46.2607460  27.0686626  69.8040390  45.9040375  26.4918938  69.1285172
  45.7467613  27.8726101  69.7284088  63.8763695  21.5830765  32.3581657
  64.4012146  20.8668518  32.0006866  64.4933319  22.0935173  32.8826103
  58.9510956  69.0344086  24.9814434  59.4668694  69.6601028  25.4900799
  58.2491646  68.7650299  25.5738602  77.0866470  56.6863670   4.2577529
  77.1072235  57.4659538   3.7027240  76.1586380  56.4596825   4.3180180
  36.9720230  61.9599380  37.3733597  37.1996498  62.8872643  37.4403191
  37.6259460  61.5133629  37.9111214  44.3768578  45.0564232  85.0509644
  44.7454987  45.4713020  84.2710876  43.5166016  45.4631615  85.1546783
   0.1083890  31.6249352  24.0805759   1.0311221  31.3941708  23.9731331
  -0.3689439  30.8756332  23.7243004  65.0771255  56.9110146  40.9907265
  64.3149338  57.1093140  41.5347595  64.9723587  55.9882431  40.7588921
  48.2416763  47.8331299  75.7741470  47.4134903  48.1710472  76.1149597
  48.1466255  46.8814964  75.8140488  79.0037384  27.5695286  18.6855679
  78.5602798  26.7213440  18.6983395  78.9998093  27.8279991  17.7639332
  68.6987686  28.6303940  33.0233879  68.8294525  27.7846375  32.5946121
  68.9351501  28.4744396  33.9377365   2.5883441   8.7098913  86.7528458
   1.8925258   8.2299824  86.3036728   3.3191459   8.0928440  86.7904358
  71.4918289  62.8916702  47.5685921  71.4354706  62.4885101  46.7022705
  70.6880646  62.6201782  48.0118637  25.8346958  10.5712328  16.2764931
  24.9268150  10.8600349  16.1838741  26.1145401  10.3706875  15.3833532
  74.4242172   8.7001314  17.6429424  75.1794510   9.2411318  17.8735313
  73.6740265   9.1664124  18.0117702  72.8978806   4.5825882  55.2650185
  72.9791107   3.6326976  55.3506966  71.9542618   4.7432637  55.2651825
  18.4247208  43.6371078  61.3535881  17.8534279  43.5933266  62.1203575
  18.0486755  44.3326721  60.8141289  85.9345474   8.4283152  51.6910248
  85.1637802   8.9503288  51.4682007  85.5877228   7.5551143  51.8739510
  52.3848724  59.3364868  70.0632095  51.5072403  59.0939217  69.7679901
  52.2500229  59.7090759  70.9345474   1.8633169  70.9067993  77.6173935
   2.8077476  70.8532562  77.7637329   1.6163059  70.0297928  77.3240204
  75.2528763  59.3866348  38.6718750  75.5163040  59.2487831  37.7620201
  75.0697250  58.5077744  39.0039787  11.1553297  56.3875313  52.8006287
  11.5906887  55.5646248  52.5780983  10.2491989  56.2630692  52.5183754
  32.0806351  26.8754730   9.0451002  31.7818794  27.6638126   8.5917826
  31.2765694  26.4560375   9.3513365  46.1680107  36.0468636  60.5884018
  46.9967918  35.7986526  60.1788292  46.2598915  36.9827766  60.7668877
  31.2595024  47.2887115   8.7216339  31.7864647  48.0626907   8.5228844
  31.7525234  46.8318291   9.4031172  74.1858826  41.0502586  57.7886887
  73.6718597  41.8548737  57.7207947  74.5684128  40.9362907  56.9186783
  60.0456085  45.3472099  12.8840351  60.6159477  45.9468842  12.4030609
  59.8645630  45.7984200  13.7085733  52.7362251  23.0984974  24.6019230
  53.0208435  22.2972107  25.0414295  51.8466110  23.2449646  24.9234257
  12.2847500  18.4359245  16.9561558  12.2464647  18.5042152  16.0021629
  11.8441658  19.2253571  17.2706642  80.9867477  55.3524094   7.3432703
  81.6941910  54.8961372   7.7988696  80.1916351  54.8947525   7.6163578
  71.1661377  17.3703651  13.7180319  70.9446411  16.4828701  13.4360323
  71.7616882  17.2452850  14.4568892  54.0034904   8.4951305  57.9373245
  53.5013466   7.8609128  58.4490395  54.8996048   8.4096909  58.2627602
  50.8798141  17.4325409  37.2085037  50.7203979  16.9648952  36.3886719
  50.0210304  17.4788780  37.6287117  57.1152954  40.6553764  20.8754539
  56.8285713  39.7422981  20.8579884  57.6938095  40.7102509  21.6360741
  47.0011597  63.4598389   9.3511019  46.8314972  63.9347382   8.5375204
  47.1040115  62.5478745   9.0791168   8.5876865  56.9547539  83.6766663
   7.8010063  56.9984512  83.1331100   9.2195606  57.5175438  83.2291946
  58.9972305   9.7852774  49.7667007  58.6656952  10.6687803  49.9271355
  59.8422356   9.9207354  49.3379211  82.0907135  62.5530167  37.4392471
  82.2733307  62.5168190  38.3781662  82.9519806  62.4967003  37.0253906
  79.8223343  68.9825363  75.8796844  79.0561829  68.4613876  76.1197662
  80.1841965  68.5374603  75.1133957  27.8412952  14.4953728   6.3790746
  27.9491329  13.7190189   5.8296418  27.5802460  15.1857500   5.7695961
  70.0564194  13.8819427  86.8176422  69.2985840  13.3335590  87.0206146
  70.6831894  13.6922531  87.5157852  44.5246506  44.6518669  45.0301132
  44.0659027  45.0251274  45.7827492  43.9675026  43.9275818  44.7451057
  40.0427170  23.2612152  19.6978035  39.7380905  23.7931404  20.4329853
  40.9409409  23.5549355  19.5456276  16.0266514  24.1794052   2.0461824
  15.4833803  24.4721603   2.7778804  16.6352577  24.9026508   1.8953612
  77.1790771  17.4690571   2.0061960  77.8586578  17.0301018   2.5177870
  77.0621719  18.3147793   2.4389997  47.2261658  23.7349949  25.1147671
  46.5551834  23.0740719  24.9439011  46.8602486  24.5451336  24.7597847
  84.9686737   3.3558726  77.9018097  84.4121170   3.2474389  77.1306305
  85.1494675   4.2952013  77.9365387  33.5162163  24.1948051   2.0253425
  34.4016914  23.8364697   1.9640589  33.6419373  25.1436672   2.0346856
  72.6079254   9.2059183  58.5085831  73.3369522   9.8246031  58.5529976
  72.7095184   8.6596861  59.2880325  74.5847397  26.2666092  14.2096882
  74.2426682  25.8693466  15.0105667  74.0964813  25.8420467  13.5042896
  58.6704369  23.7581348  63.0886116  59.4681816  23.2549515  63.2518387
  58.9078217  24.6600285  63.3041840  77.3686218  37.3020020   3.1418624
  76.7130814  37.9897003   3.2583077  76.8574066  36.5021935   3.0185840
  26.0939407  64.7953033   3.0942280  26.7851315  64.2210236   2.7645495
  25.8944092  65.3759460   2.3598716  84.9706802   8.7942410  35.9217224
  84.7458344   7.8838501  36.1137276  85.4863052   8.7489071  35.1165466
  76.9344101  66.2052231   2.8822672  76.4034805  66.9186249   3.2363729
  76.9432602  66.3593369   1.9375975  22.6407776  63.2331963   9.7357836
  22.1321430  63.2452621   8.9249954  22.2810726  62.4987907  10.2332697
  17.1426544  61.3961639  45.2092896  16.1861305  61.3904800  45.2448349
  17.3621407  62.2329559  44.7996140  25.6037350   4.0318122  39.1844101
  26.2645664   4.6350584  38.8443680  24.8760281   4.5961475  39.4455566
  29.4567566  22.0878925  80.6412430  30.0908661  21.4691944  80.2788162
  29.3634453  22.7589169  79.9650345  70.6506424  20.6734543  10.2396097
  69.9905472  20.7686157  10.9262362  71.4598541  20.4756527  10.7110729
  58.7713814  19.0128193  47.3397522  58.0157013  19.2369251  47.8828545
  58.4825745  19.1869316  46.4439240   2.9199417   0.1674731  62.1906166
   2.6048207   0.2125898  63.0933304   3.7144415  -0.3640414  62.2405586
  80.5043335  19.5082035   7.8860826  80.5759201  20.1349926   8.6059742
  81.3814392  19.1331558   7.8069401  80.6845551  60.5509415  70.9850006
  81.3305359  59.9019661  71.2638626  80.2897186  60.8613434  71.7998505
  41.0842972   6.4105182  85.7122574  41.9950371   6.5199614  85.4387436
  41.1412582   6.1000962  86.6159286   8.6725607  41.4852600  88.0485229
   7.7488151  41.6030197  88.2700195   8.7155371  41.6479034  87.1062241
  37.9200516  70.2262039  19.6091347  38.0501213  70.1447449  20.5539513
  38.6665306  70.7444305  19.3084011  51.4289284  51.8270035   6.9621830
  51.8828545  51.4187393   6.2249560  51.2224884  51.0994644   7.5489521
  36.4071236  23.5920944  70.8810654  36.3604889  24.0567951  71.7165985
  35.5152130  23.6301918  70.5357056  70.9932098  35.8736954  43.1466103
  70.3224716  36.0501442  42.4869041  71.8114548  35.8337898  42.6515274
  61.4341850  33.9286194  68.8482361  61.7855263  34.4479942  68.1250229
  60.9501381  34.5584068  69.3823700  68.8470154  48.9507217  52.2999649
  69.0367355  49.8869095  52.2384377  68.1706390  48.7995110  51.6397476
  32.9220886  70.2677536   3.9638062  32.8882942  69.3220367   3.8198814
  32.8638382  70.3676453   4.9139953  49.4894676  49.8176613  36.8469200
  48.9689903  49.0536499  37.0951614  49.9465179  49.5475769  36.0504341
  33.9623566  60.4056435  61.3516502  34.4915009  59.6085892  61.3823624
  33.6237221  60.5027618  62.2416649  31.5583801  64.9216537  44.0589218
  31.7900295  65.8383102  43.9095535  30.9832935  64.9415207  44.8238449
  14.0352039  53.8276863  45.2952805  13.7544966  53.0139618  45.7139549
  14.8484240  53.5976524  44.8458443  76.6829910   2.4569476  45.9154091
  75.9518127   2.7929883  46.4337654  76.6179047   1.5055491  45.9980965
  62.6538811  43.1980820  31.9304848  61.9241409  43.7678299  32.1735878
  62.3336792  42.7089767  31.1725407  37.2593231  65.9426270  26.4201889
  36.8636284  65.0746918  26.3405361  36.9806023  66.4063110  25.6305428
  51.4770203  61.4104996   1.2587019  51.7973824  62.2366066   1.6208421
  52.0934830  61.2015762   0.5568776  85.4457779  28.9613609   8.3205948
  85.0592804  29.6416969   7.7692394  85.1461792  28.1394062   7.9321856
  40.6376038  64.6078415  11.4154091  41.4161301  65.0317841  11.7765236
  40.1762619  64.2630386  12.1799383   3.5817635  29.4441109   9.7774134
   3.6299973  30.3489857   9.4690208   2.6517804  29.2231483   9.7270250
  51.6969299  22.8879414  54.4466858  51.5944862  22.3097172  55.2025909
  52.5215988  23.3469467  54.6062660  81.3778381  19.6137676   3.9587703
  82.2207947  20.0390816   3.8014109  81.6059189  18.7470226   4.2948709
  38.7934570  37.0714340  60.4216919  38.0559998  36.5024834  60.2010536
  39.2302475  36.6265678  61.1480141  23.3598576  49.0084915  33.9306488
  23.8311005  48.8921661  34.7556534  22.5322361  49.4177513  34.1832047
  35.2630539  38.8549538  66.3663025  35.7276268  39.2861862  65.6490555
  35.5430603  39.3265038  67.1508255  27.8368092  66.0613022   1.0773546
  28.4858170  66.7233047   1.3156407  28.2931080  65.2273483   1.1893109
  13.2633286  11.0856915   5.1332936  12.6753273  11.7072392   4.7041502
  12.7645721  10.7633133   5.8839908  17.1281796  39.6791306  10.2871561
  16.9396763  40.6014671  10.1139669  16.8531914  39.5446625  11.1940918
  67.7008972  15.5844221  67.7114716  68.6172562  15.8570471  67.7582932
  67.3116608  15.9125919  68.5220490  69.8663712  59.9865952  48.2407227
  69.7937927  60.6332436  47.5387192  68.9938660  59.9605560  48.6335220
  69.2940826  51.5836487  19.6757145  68.9817810  52.2606354  20.2760391
  68.8004379  51.7324333  18.8692322   3.3518748  33.2632179  77.2054901
   3.9114120  32.9001656  77.8920364   2.6547232  32.6162453  77.0976105
  60.9448204  68.9440918  79.1626663  60.5868301  69.2254562  78.3206940
  61.7714806  68.5157928  78.9403534  79.2657547  32.6067352  47.2319489
  79.9996719  32.3768158  46.6621017  79.1318817  31.8300877  47.7752075
  85.3374405  57.7016563  14.2387905  85.5112839  58.2867584  13.5014534
  84.7809677  58.2141685  14.8252201   6.1408176  33.9588776  26.0705376
   6.0234118  34.3664207  26.9286499   5.2546573  33.8884048  25.7155933
  79.3267365  12.6542530  83.3585815  79.2799759  12.4462090  84.2917252
  79.2048874  11.8126535  82.9191589   5.7834363  43.3795166  22.8838158
   5.0497441  43.7356033  22.3826866   6.4443803  44.0716515  22.8654346
  60.3810730  28.8261585  88.6705246  60.4862061  29.4111729  89.4208145
  59.7490845  28.1702919  88.9649124  73.6703491  70.2474518  21.1921368
  73.9566879  69.3992996  21.5310841  74.0624924  70.3018723  20.3206463
  66.6458664  69.0859909  43.1803589  66.2237244  69.3526306  43.9970169
  67.0485153  68.2416763  43.3834305   9.1597986  42.0381737  49.2596283
   9.9545298  42.4696350  48.9458199   8.4604826  42.6680717  49.0852127
  61.2827034  31.2295685  43.1474571  62.1198807  31.0241795  43.5636101
  61.4062729  30.9890308  42.2292519  15.1928625   7.3814931  14.7326498
  15.1764822   6.4475517  14.5235634  15.6518106   7.4311948  15.5711775
  37.7289352  54.7047577  76.1844864  37.3121681  54.5407677  75.3385239
  37.0178452  54.6281738  76.8206558  44.2393608  48.2674446  56.3724747
  44.7266808  47.8418350  55.6670609  43.3531189  47.9133377  56.2988815
  41.5683708  24.9854870  63.1494370  42.3376846  24.7881031  62.6151810
  41.8689804  25.6548252  63.7641373  22.6353397  68.1010895  79.4455719
  23.2765236  68.0746613  78.7353516  22.8431702  67.3377457  79.9844131
  30.0149708  38.4581375  83.0277863  30.3011608  38.6853828  83.9124832
  29.7696953  39.2949486  82.6330414  34.4226112  59.6602821  58.4328117
  34.4852982  59.4713554  59.3690872  33.6546898  59.1694031  58.1403084
  80.0492630  41.6744690  13.8452616  79.3742447  42.3487473  13.7682524
  80.0301056  41.4206657  14.7680016  31.0134697  27.6563244  68.8745651
  30.9458332  28.5558949  69.1946106  31.1756592  27.7477093  67.9356461
  79.2074280  10.2692661   7.3530784  78.7260437  10.9922123   6.9507732
  79.8851776  10.6954088   7.8777561  72.7094803  13.2653913  50.3127289
  71.7621918  13.4026260  50.3070183  72.8785477  12.7958403  51.1295357
  23.9347820  49.1312637  85.6316833  23.3625717  49.1884270  86.3968887
  24.2597427  50.0231438  85.5084534  66.1643524  20.7600727  64.7790146
  66.0021820  21.6280155  64.4094086  65.4019470  20.2428665  64.5192566
   4.6999931  35.7112122  40.4468575   4.3039217  36.2700081  39.7781982
   5.4344263  35.2886581  40.0015640  17.7662525  46.4987335  88.6584473
  16.9498768  46.1527824  89.0191193  17.8708134  47.3525085  89.0784073
  79.7074661  48.6267738  20.8348045  79.5594177  48.4688721  19.9023991
  80.0600586  47.8002739  21.1646652  18.2856445  25.7204437  67.8707352
  17.6060181  25.1215019  68.1799469  17.9150829  26.5927982  68.0045853
   7.0723538  49.4547386  35.3283463   6.5624390  50.2204666  35.0639992
   7.8750625  49.5109177  34.8099480  11.9510336  46.5589485  71.2996368
  12.8159866  46.9620209  71.2246704  11.4108286  47.0316162  70.6663971
  70.6740723  33.8912163  16.6455669  71.5695648  34.2006035  16.5091743
  70.1745834  34.2792053  15.9270945  43.9901657  42.4704094  63.3325424
  43.1957245  41.9739838  63.1359444  44.3378563  42.7154160  62.4750366
  54.9725990  32.6440125   0.9842211  54.2309532  32.2434044   1.4377717
  54.9432793  33.5647926   1.2440909  52.4747963  31.8076611  29.2658443
  53.0395012  32.3216667  28.6886616  51.7027817  32.3579521  29.3977814
  71.5083618   7.6056271  32.9202538  72.2705536   7.0310898  32.8481522
  71.2749863   7.5786185  33.8481789  82.9350357  35.7909584  50.8707619
  83.4316635  35.4925766  51.6327057  83.0179291  35.0785446  50.2368622
  57.3965797  65.4087524  41.1027946  58.3403511  65.4296646  40.9443970
  57.2635612  66.0085602  41.8368073  53.5278206  60.8290329  68.2081146
  53.0469170  60.2581558  68.8073349  54.1430664  61.3012161  68.7691345
   6.3125224  46.2162933  12.6630030   5.6878767  45.8849640  12.0178146
   7.0882607  46.4438133  12.1504622  34.2446556  51.8791618  44.4686241
  33.6025047  51.5355911  43.8474693  34.0211830  52.8057785  44.5562134
  61.6897049  34.6517220  63.5949326  61.1589584  33.9812050  63.1648788
  61.3713036  34.6667862  64.4974976  59.1713943  46.4386978  51.4364281
  59.8510590  46.2037544  50.8046913  59.1810875  45.7256508  52.0749435
  82.3973160  41.2647552  51.1509094  82.8127899  40.7691269  51.8565788
  81.4675446  41.2716751  51.3783073  81.9461060  71.1416550  33.3049316
  82.9016571  71.0890121  33.3241577  81.7104721  70.8931274  32.4110947
  82.1119690  56.0661812  84.4639816  81.7132111  56.2336769  85.3179016
  81.3970337  56.1840668  83.8385239  21.9285583   4.1398015  51.1755524
  22.2153435   3.3813810  50.6668434  22.4359913   4.8706861  50.8226318
  14.6602297  67.1605759  50.9756622  14.4145069  66.3017654  51.3195877
  15.1618528  67.5670090  51.6823578  69.0791245  65.3393631  59.6910172
  68.8859558  64.7278976  60.4016685  68.2557907  65.4135666  59.2084694
  23.6774101  40.4452400  62.8105354  22.7499313  40.5897751  62.6231232
  24.1362152  41.0578880  62.2357368  36.8634148  35.0420341  60.1174583
  35.9589806  34.9752541  60.4236832  37.0886002  34.1539726  59.8402138
  65.8825302  15.9542856  17.6251545  66.4161606  16.7256908  17.8159580
  65.3776245  15.8084755  18.4251842  20.9693317  64.2845993  13.6408815
  20.0248642  64.1766052  13.7529240  21.0573997  64.8173370  12.8505249
  62.2749557  68.4724579   7.9569559  61.5379601  69.0589752   7.7864680
  63.0446014  69.0409393   7.9303012  46.7096062  20.7245674  29.9199677
  46.9425201  20.2088833  29.1479206  46.3097343  21.5188389  29.5657558
   4.0197992  67.1298676  48.4689140   4.7392359  67.6785507  48.1565285
   3.8921735  67.3975220  49.3790245  33.0629883  52.7798462  56.8309135
  33.2425842  51.9902153  56.3205605  33.6947174  52.7494888  57.5494080
  76.0117722  13.1704426  83.6714172  75.5974121  13.5609827  82.9019928
  76.6542740  12.5582962  83.3126602  36.1802979  41.5683022  79.0305710
  35.4998932  42.1330376  78.6640244  36.5761986  42.0916328  79.7274323
  77.3245926  23.6248322  53.3356056  76.5224762  23.3971310  52.8655014
  77.0355911  24.2179031  54.0291328  23.4302635  35.8803406  87.2063522
  23.3809128  35.4496841  88.0597763  24.0003128  35.3148384  86.6853104
   2.9551678   7.3144059  24.4445648   2.2499218   7.8360262  24.8276730
   3.7168748   7.5018616  24.9931030  34.0331764  35.0091438  14.7276869
  34.6890869  34.3203087  14.8350201  33.2267799  34.5405540  14.5123215
  42.8623924   4.6311250  42.6922951  43.8183556   4.5875320  42.7138824
  42.5974922   3.8448670  42.2149506  84.8919907  18.8799477  65.6613235
  84.2877502  19.2332287  65.0084000  84.6634750  19.3365307  66.4709854
  32.8242798  56.6071129  62.0070534  32.5365715  55.8417931  61.5093155
  33.2400055  56.2423058  62.7882843  57.3393059  17.7426262  31.5238667
  56.9555740  18.3076363  30.8532372  58.2735214  17.7247791  31.3161354
  62.2198677   4.4486413  13.8110723  62.2182922   3.6722691  13.2511835
  62.6029434   4.1486888  14.6353998  85.7456741  21.5382805   5.5712171
  85.5056839  22.3926983   5.9298348  86.6871796  21.6017876   5.4106908
  75.6056671   5.5179191  28.4641552  75.5924759   6.0256600  29.2754860
  75.8400497   4.6317840  28.7399464  64.7440872  64.0343170  81.1479034
  65.6260910  63.7969208  81.4341583  64.3993454  64.5755997  81.8581161
  74.6444778  57.1521072  39.7626495  74.7734833  56.2072525  39.6799507
  74.3391190  57.2743797  40.6615562  50.1891937  58.3551979  68.9016266
  50.4320831  57.8063087  68.1559982  49.5512238  58.9738083  68.5458908
  44.9083290   5.4706092  21.9837570  44.6398087   6.3656545  21.7763424
  45.8574142   5.4703755  21.8593712   2.1069434  44.8896217  52.8375893
   1.6832669  44.4662209  52.0909576   2.9958034  45.0754471  52.5348892
  59.4558067  51.6816330   9.7559710  59.1266937  52.4555893   9.2989082
  60.3878517  51.6540451   9.5397263  52.2816734  46.0747452  80.6759186
  51.3870201  46.2276001  80.9800034  52.5733109  46.9268341  80.3516922
  78.0360107  63.0661240  40.8001862  77.9701691  62.6156845  39.9581642
  78.9770279  63.1449280  40.9567223  61.1795044  60.3112297  59.7338982
  60.3956947  60.8146248  59.5137405  61.2364120  59.6449013  59.0490646
  52.6619797  27.3267212  85.9757996  52.1513252  28.0757675  86.2830353
  52.1045265  26.9102039  85.3185425  69.5713577   5.5625825  23.2486458
  69.9971390   5.3327823  24.0745621  70.2763824   5.5408721  22.6015682
  61.6420708  25.7103729  79.4807205  61.7761002  24.8104267  79.7779846
  60.9679222  25.6414242  78.8047028  41.1125221  67.5219955  53.4306030
  40.8974915  66.7491379  52.9084129  42.0616493  67.6121521  53.3453674
  61.5842018  25.7265511  57.6200600  61.5897827  25.9629498  58.5475922
  61.4429131  24.7798500  57.6150208  79.5877075  26.4103718  28.6233406
  80.0180664  27.1264858  28.1562138  80.2339706  25.7042809  28.6270676
  45.7372360  36.7787209  15.8732624  45.0511360  37.2660408  15.4171782
  45.5343895  35.8596268  15.6990471  82.7973938  58.9937515  88.0154495
  83.4398041  58.3660774  87.6844482  82.3488083  59.3128471  87.2323914
  26.7177582  57.6614990  38.5761032  27.4101105  57.1121330  38.9436302
  26.5169773  58.2898178  39.2697411  54.1216507  39.0012627  44.9814453
  53.1806107  39.1707687  45.0254898  54.2996254  38.8791046  44.0489044
  66.3877563  38.3613510  32.4657898  65.8337097  38.9493141  32.9791756
  66.1459885  37.4841499  32.7629356  34.4635925  70.5379715  37.8628082
  35.1805725  69.9403610  38.0750160  34.8892174  71.2792969  37.4320908
  43.1733475  29.8444881  24.9561901  42.5432167  29.2200546  24.5966797
  42.6651382  30.3675499  25.5761566  71.7372894  52.1661797  54.6528511
  72.2138214  52.8305702  55.1505814  72.1911469  51.3470688  54.8510895
  47.0382500  45.3303146  29.9873867  46.5056419  44.6192970  30.3437710
  47.5532532  44.9190407  29.2932243  68.9839401  34.8835640  24.8414288
  69.8320847  34.9044342  24.3982067  69.1997223  34.9195023  25.7732983
  68.2368393  50.3797302  85.9497910  67.7605591  50.0298042  86.7027435
  67.7098007  50.1236267  85.1929092  83.2181244  26.2916260  59.4677315
  82.9053497  25.4574261  59.8177490  83.7908249  26.0467529  58.7409019
  82.7232666   9.3959732  20.9173050  82.0812073  10.0645561  21.1560230
  83.5666504   9.7741594  21.1661186  53.9044113  15.9892406  60.1274681
  54.6561508  15.4568205  59.8673706  54.1616936  16.3737335  60.9654465
  11.7534695  60.6323128  57.7243805  11.3127384  60.6617775  56.8751907
  12.6177149  61.0090370  57.5588799  86.1027451  58.8616333  56.5078087
  85.3613968  58.7951279  55.9059715  86.2933502  59.7986984  56.5503998
   3.6687937  13.7713728  52.9103165   3.6071708  12.8620071  52.6179352
   4.2316065  13.7366514  53.6837959  62.6897659  70.7276993  62.9912872
  62.6239204  70.3367004  62.1200714  63.6248474  70.8953323  63.1085320
  29.0918484  37.1842690  54.4455185  29.6449165  36.6740227  53.8539162
  29.0743198  36.6750526  55.2558441  16.3226166  45.1329231  56.2382698
  15.8230295  44.4262314  56.6472092  16.1970425  45.0022316  55.2983856
  83.6257019  64.6811905  86.0733185  83.6319809  63.7242470  86.0521240
  84.0088806  64.9418335  85.2357788  51.7119827  58.5813141  58.1705666
  51.2931099  57.7206879  58.1604004  51.6843719  58.8719063  57.2589607
  64.0011978  59.9697609  56.5765343  64.7263031  60.5673180  56.3938408
  64.2858505  59.4757614  57.3454094  38.5748291   1.4200785  87.9652328
  37.9555931   0.7027887  88.1004105  38.5888596   1.5488640  87.0168457
   5.9721251  68.7789993  79.1785126   5.8793163  69.6256638  79.6153030
   6.5818305  68.2899780  79.7310944  25.1348515  54.8918037  21.8062420
  25.1122932  55.8416672  21.6901474  24.9090405  54.5398407  20.9452152
  78.9554214  66.7883682  22.4412689  79.3037491  65.9034576  22.3325043
  78.3136749  66.8813705  21.7371769  68.8929901   4.1906238  48.4742393
  68.8062057   3.6916640  49.2864838  68.0001068   4.4649105  48.2650757
  68.9682159  31.7300453  17.3080997  69.5474014  32.4451752  17.0447197
  68.9322357  31.7901897  18.2627296  22.2613316   6.8664036   1.3249855
  22.7273445   6.3820233   0.6434871  22.0256119   6.2019801   1.9724494
  44.7071266  47.3816261  80.3713989  44.8567314  47.9290085  81.1422577
  44.7298164  47.9931412  79.6353531  80.8560410  52.4467392  79.8817291
  81.0922775  51.5243111  79.9794235  79.9065018  52.4647522  80.0012436
  59.6190681  12.8606606  82.5081100  60.1308250  13.6655550  82.4276047
  58.7548409  13.0912142  82.1672516  48.2524490   6.0590587  19.5135956
  48.1931190   5.1101942  19.4023857  47.9768066   6.4168229  18.6696415
  78.8690109  57.7714882  18.0160255  78.5535355  57.9045639  18.9098911
  78.1489792  58.0707741  17.4608593  53.6428719  40.8359756  65.5832596
  52.8513565  40.8404312  66.1215134  53.8486214  39.9083366  65.4675674
  65.0239639  53.9491844  75.6650467  64.2229004  53.4262199  75.6327744
  65.5505295  53.5386581  76.3509216  84.1492538   0.6987104  81.3847046
  84.4778748   0.6674440  82.2831802  84.6666183   0.0427616  80.9174805
  22.9588089  42.6690102  38.2605247  22.6877289  42.2333603  37.4524651
  23.2286148  41.9553108  38.8385086  81.5455933  50.4002457  44.6770401
  80.7346802  50.2185173  44.2020378  81.7966690  49.5568619  45.0537338
  65.1887741  69.4702682  12.0194654  64.8548279  68.5980530  12.2291193
  65.9047699  69.6080475  12.6396265  49.2528496  29.8153343  18.3442764
  49.8562737  29.0798473  18.2385788  49.0083313  30.0548973  17.4503803
  24.5308723  63.3558044  88.3977509  24.4937668  62.7237053  87.6799011
  24.8848305  62.8595695  89.1357880  50.8374214  24.2370548  85.5332413
  50.4831772  23.5300713  84.9938812  51.0086899  23.8282623  86.3816452
  27.5912514  35.5548973  67.7674103  27.7415905  34.7005539  68.1720428
  26.9902821  35.3750610  67.0444107   3.1501379  25.4871597  72.2586670
   3.4312601  24.8955364  72.9566498   2.2692747  25.1888447  72.0321274
  83.2782593  43.2734032   1.8360494  84.0607834  43.7274895   2.1486104
  82.7292862  43.1787758   2.6144459   0.6228593  12.6160946  23.5239754
  -0.1861240  12.3556137  23.0836048   0.5641579  12.2136412  24.3904724
  69.1660156  68.8001785   3.1179790  69.9882050  69.2604828   3.2863445
  69.0732422  68.1978378   3.8560946  56.3677597  18.8762341  69.0787888
  55.9265938  18.6902390  68.2499313  56.8913841  19.6576195  68.9013443
  32.1979828  68.0662003  80.4976120  32.0563698  67.7973099  81.4052887
  32.6992416  68.8789520  80.5640030  57.4056168  19.0802841  64.8016663
  58.1878700  18.6187992  65.1038971  57.4801445  19.0784206  63.8473740
  30.9548798  12.3301926  82.1569824  30.0039940  12.2333794  82.2086945
  31.1730042  12.0767870  81.2600784  21.3790665  31.4703960  76.8887787
  22.1375942  31.9908714  76.6242523  21.5833874  30.5826912  76.5947266
  10.2074747  24.4836464   7.9482007  10.1074028  23.5331459   7.8956265
  10.8241062  24.6986351   7.2483592  36.8812103  41.1994667  12.0687113
  37.4556084  41.9000244  12.3777771  37.1940880  40.4160919  12.5211163
  85.3767166  59.0834694  25.2979507  84.7569122  58.9781494  26.0197430
  85.6196823  60.0089531  25.3240051  86.1022339   8.3914032   5.6058621
  86.4501724   7.5596514   5.9273586  85.9503174   8.2427387   4.6725607
  53.9288292  34.0429840   8.4438419  53.9802704  33.5336227   9.2526312
  54.0320969  34.9517593   8.7261419  73.6955490  45.6355667  48.9300194
  73.5916138  46.5857315  48.9811821  73.9054413  45.3690453  49.8250885
  12.7254648  56.3756142  32.3978271  13.5640182  56.8348274  32.3511009
  12.1992807  56.8987465  33.0025520  16.0350227   3.3172212  36.6851959
  15.7766771   3.6638288  37.5392189  15.5690155   3.8649480  36.0534821
  72.0193329   9.7140789  83.8913116  71.1564636   9.6633711  83.4800720
  72.5704422   9.1360054  83.3637314  54.7517548  24.1900349   1.9121292
  54.4149055  23.5510750   1.2840397  54.3451042  25.0171566   1.6537971
  65.2027206  51.2708359  84.9979706  64.9628754  51.0382080  84.1009827
  64.9599762  50.5042648  85.5172729  31.4136314  37.9363251   7.6766047
  31.6751862  38.4625053   6.9209886  30.4598656  38.0128632   7.7031651
  73.7988968  71.0286636  47.7270508  74.3315430  70.3511963  48.1436501
  74.3688202  71.4015656  47.0544662  77.5506439  65.8804932  70.9110260
  77.2510605  66.0440063  70.0167389  77.2225037  65.0052719  71.1172867
   2.7277129  58.9895248  70.5296326   3.2951555  59.7428589  70.6931229
   2.1993003  59.2471581  69.7742233   4.2569680  43.8579903  66.0674744
   4.0601439  43.5850639  66.9635773   3.7686217  44.6732025  65.9526596
  73.2166672  61.7273445   5.5787191  72.7681274  61.9139137   6.4034805
  73.4952698  62.5851822   5.2582107  51.0044060  17.7240620  61.1356201
  51.8194008  18.2151642  61.0315552  51.1923218  17.0925007  61.8299179
  47.7147293  47.6939240  16.2572098  47.7878418  47.8530426  15.3161640
  47.7549210  48.5653076  16.6512966  42.7179413  50.7007294  27.8572063
  42.3612061  50.3420639  28.6698132  42.6534920  51.6495857  27.9655876
  42.3126106  49.5196915  69.4927597  41.3910446  49.5684433  69.7468796
  42.5092087  50.3864136  69.1372757   9.0401812  46.1127777  28.0448265
   9.6408195  45.8518753  27.3466892   8.3829393  45.4172592  28.0676823
  49.1529312  13.4621000  86.8730469  49.8509560  12.8693008  87.1515732
  48.6764755  12.9727173  86.2024231  55.6622047   6.5724678   2.9767537
  54.8153000   6.8195009   2.6053200  56.2768478   7.2128134   2.6184218
  62.6385155  54.6771584  66.0712128  63.5545311  54.5696869  65.8150864
  62.1489410  54.5855522  65.2537994  40.0051346  57.2791862   7.7428160
  39.9476814  57.6091995   8.6394901  40.4398499  57.9800911   7.2570300
  54.7626457  60.8176231  24.3794632  55.2477570  61.4995232  23.9147949
  55.2940674  60.0290070  24.2703533  67.4382706  30.0083237  68.1423035
  68.1117096  30.3208237  67.5381012  67.7652206  30.2471218  69.0096664
  51.0112190  63.4338799  18.7759609  51.6847534  63.6696205  18.1379871
  50.9389572  62.4818878  18.7072506  50.3593407  41.9888649  55.7093315
  49.8442612  42.7543488  55.4544563  49.9097176  41.6436348  56.4806213
  61.0988503  10.8393946  81.5369415  60.8579597  11.7601175  81.6392746
  60.3159981  10.3561907  81.8013000  48.5457687  53.7953148  51.3789597
  48.7315521  54.6532402  50.9972725  49.2057762  53.2158470  50.9983826
   5.0073204  64.0311279  25.0997448   4.4574890  64.3918991  24.4042168
   5.3842421  64.7988358  25.5296135  30.5241413  71.2595596  88.0784683
  31.1183338  70.8489914  87.4502945  30.8624039  70.9974747  88.9346924
  24.0874729  55.2404747  31.1988144  23.6835804  55.8052826  31.8576717
  23.9925385  54.3555870  31.5512238  46.7976685  60.3709297  36.9096642
  46.1822891  59.6883392  37.1772575  46.7797852  61.0042152  37.6272011
  83.8006668  11.9160452  85.8248825  83.0757980  11.5515041  86.3327255
  83.6788177  12.8638630  85.8798828  31.4891701  20.2196407  17.5940647
  31.9666882  21.0335884  17.7543621  31.9869804  19.5527763  18.0670433
   2.6536372  65.8834000  74.3104401   1.8827856  65.9504089  73.7469406
   2.6488931  64.9762650  74.6159134  24.7359047  55.4461708  37.8548241
  23.9115715  55.6038055  37.3945427  24.6116104  55.8498802  38.7137794
  51.0269966  57.7327614  49.9473495  51.3205872  56.8226395  49.9059792
  51.5394707  58.1805801  49.2742500  59.9707031  29.0486393  11.9219398
  60.7304115  29.5993099  12.1112461  59.5077820  29.5111217  11.2233381
  42.4100266  35.8894653  75.4711304  42.1659317  35.8570671  74.5461426
  41.6153069  35.6308022  75.9377670  59.7230072  45.5378494  29.6946278
  60.4183655  45.1657104  29.1522083  58.9483261  45.0177956  29.4809742
  68.9322968  13.5053234  62.6309471  69.2244949  13.7107735  61.7428932
  67.9780502  13.4670296  62.5662689  13.7483072   7.0847349  10.0431261
  13.2082434   6.5964093   9.4217558  13.6271067   8.0017185   9.7967844
  46.6555328  54.7332001   5.2424636  47.1571693  54.2794228   4.5652061
  45.7845879  54.8445320   4.8612857  30.1045399  61.8901215  18.7060318
  30.4370232  61.3188782  18.0136681  30.7192955  61.7716751  19.4301014
  66.2688675  56.0901833  66.9997177  66.5866470  56.9199829  66.6438065
  65.5547256  56.3390617  67.5864792  66.1317444  12.3008947  53.4417839
  65.6358109  11.5134363  53.2177544  65.8666916  12.9455938  52.7857780
  51.1950073  25.3034782  66.0825043  50.5654984  25.3651466  65.3640671
  51.4409904  26.2105637  66.2639389  80.0010529   1.4987974  37.7654305
  80.5487137   2.1978726  37.4082375  79.7567444   0.9730620  37.0037537
  79.5318604  29.4416218  73.3112183  78.8645096  28.8460674  72.9703522
  79.0873642  30.2867680  73.3774185  40.6338043  18.0120697  73.6680298
  41.5494461  18.2874012  73.6230545  40.6144943  17.3576717  74.3663254
  63.5001640  31.4079266  36.8496094  62.9463921  31.0572662  36.1520386
  64.3932419  31.3057175  36.5206680  82.4975357   4.2148042  51.7151489
  81.8990860   3.6060574  52.1481819  82.1018295   4.3703866  50.8575668
  75.4692917   9.9256067  73.3113174  74.5642014   9.6152191  73.2847748
  75.6989136   9.9151707  74.2405090  72.8532486   9.5368719  73.6685257
  71.8984833   9.5853148  73.7166595  73.1176453   9.1749620  74.5143127
  74.7328644  68.0140381   0.9397206  75.2854691  67.3396835   0.5446170
  74.3678818  68.4914474   0.1946695  56.5364342  43.6486130  25.0174065
  56.6669197  42.7246513  24.8041115  56.8243408  44.1181259  24.2345276
  28.3813725  19.7688198  14.1504040  28.6532612  18.9296589  13.7787628
  28.0934734  20.2828465  13.3960018  19.8802776  41.1059265  22.4890614
  18.9944077  41.3070679  22.1873856  19.8835316  41.3632431  23.4110222
   5.0030613  41.8865662  28.7501469   5.0147219  42.4117546  29.5503178
   5.7778754  41.3286934  28.8184986  69.5458603  64.2416382  75.2646866
  69.1778412  64.7341843  74.5310669  69.2594986  64.7205887  76.0424042
  37.0825844  51.1982460  16.0783062  37.9417839  51.5704346  15.8796015
  37.2402763  50.2569084  16.1507587  65.8765793   5.1690264  41.4352837
  66.0824661   4.6141729  42.1876030  65.6144791   6.0057049  41.8193474
  60.7868958  45.2655029  32.0983505  60.4172173  45.4227333  31.2295284
  60.4996147  46.0148430  32.6200714  17.5028782  28.3378124  73.0560837
  17.0168724  28.5937862  73.8399887  16.9139252  28.5454998  72.3306656
  80.0277634   1.5470686  84.0375977  80.3730698   1.2289518  83.2034607
  79.7121964   2.4300110  83.8450851  43.6300583  25.6168499  86.5581894
  44.4226151  25.7243481  86.0323257  43.0553093  26.3272343  86.2731400
  44.2138977  25.7035961   6.4671941  44.9299202  25.9220161   7.0637188
  43.9683990  26.5398235   6.0713563  73.5691376   8.5403271  71.0184250
  72.8378601   8.2897940  70.4538879  73.1747742   9.1009312  71.6865768
  38.9618073  62.7263184  44.8483734  38.2648506  63.3804932  44.7979469
  38.8216400  62.2913589  45.6894417  54.9685211  18.0287170  50.2324638
  54.4301033  18.7612133  50.5321083  55.4080048  18.3592720  49.4489975
   8.7240238  53.6973076  38.8322067   8.7522440  53.8878632  39.7698212
   9.1426907  52.8405342  38.7492142  46.4269485   8.7901335  10.8083210
  46.4366341   7.8406920  10.6870832  46.9690895   9.1281519  10.0955410
  37.4101791  10.5637569  12.4795799  37.8764572  10.0326405  13.1251268
  36.8305626   9.9455624  12.0344820  54.6442490  42.9216080  50.2211876
  54.1385727  43.6656456  50.5481949  54.2053490  42.1540413  50.5878410
  86.3484497  38.7967453  22.3698597  85.5833664  39.3716087  22.3497849
  87.0636749  39.3601494  22.6652622  24.1452999  10.1024733  73.1756744
  24.5622292  10.8094854  72.6831894  24.7877731   9.8651028  73.8443375
  15.9693623  34.3979797   2.7686517  16.5110664  34.2776985   1.9887027
  16.3386745  35.1683922   3.2002833   8.5751457   2.3876314  78.0457382
   7.9146776   3.0494473  78.2507095   8.6673889   2.4280863  77.0938568
  26.2085075  35.3646355  73.6742249  26.2625980  36.0566254  73.0150986
  25.4869308  34.8090210  73.3795242  24.1775475  56.2346840  49.4543266
  24.5838394  57.0838242  49.2807732  23.2566051  56.3583755  49.2245522
  70.9954605  47.4242096   9.1805134  70.0977783  47.7423820   9.2762814
  71.0580063  46.6945877   9.7969294  34.2682838  70.0565948  81.0737762
  34.2214966  70.9127579  80.6483002  34.6195755  69.4735641  80.4007950
   5.9236803  55.4496613  63.6622696   5.7322469  56.2603111  64.1338959
   6.6684499  55.6685448  63.1022339  27.1760273  63.0632401  84.1862946
  27.1834259  62.1376915  84.4302902  27.4168682  63.5246468  84.9896164
  64.3100052  36.6711349  86.8119965  64.1212311  37.6087303  86.8508377
  65.0207291  36.5960922  86.1752319  10.8649273  40.6470337  15.5962563
  11.4363508  40.6346779  16.3640804  10.0301619  40.9813843  15.9242935
  70.0204544  22.9371071  29.7005444  69.1878891  22.5589275  29.4176254
  69.8290405  23.8655586  29.8330956  28.1869316  67.0668793  31.1150322
  29.0948963  66.8511047  31.3278065  27.6670551  66.5417557  31.7234840
  29.0386696  61.6814537  75.2919769  29.4947071  62.2482491  75.9140701
  29.4708138  60.8319702  75.3806229  11.1820459  42.9127121  52.7898445
  12.0225563  42.5975113  53.1221428  10.7079248  42.1179581  52.5452919
  37.8502235  35.3628197  68.6027298  38.3340683  36.1423607  68.3298874
  37.9882889  35.3141060  69.5486603  71.9887009  66.8893509  21.8891888
  72.3822327  66.6353531  21.0544147  71.4916992  66.1188278  22.1639805
   8.5833578  48.6743317  21.5361404   7.7434444  48.9359627  21.1588783
   8.4165955  47.8122597  21.9172630  19.7931156  17.0557041  66.4655533
  19.7636986  17.8413124  65.9194870  20.7197418  16.8172112  66.4923630
  60.9576530  66.5717621   4.3949423  60.3519859  67.1362839   4.8752737
  60.7423401  66.7183609   3.4738653  39.1868286  59.7429733   1.4531043
  38.3216553  59.3341179   1.4297243  39.5453148  59.5951653   0.5779631
  50.6269417   8.1829443  61.1535492  50.5721703   8.0484095  62.0996628
  50.8630753   9.1054249  61.0560760  32.2630196  39.9804611  14.2393150
  31.4299107  39.9639282  13.7682610  32.1461372  40.6542435  14.9090824
  22.3943005  23.2742901  16.7665005  23.3270855  23.2123928  16.5608044
  22.2176971  22.5071430  17.3110466  83.4471893   9.8360271   1.1369871
  83.1653519  10.4245110   1.8373362  83.9992905  10.3796902   0.5749872
  45.9526749  41.0965347  57.1798820  45.0720901  41.1514587  56.8086891
  46.1868858  42.0036583  57.3761101  13.5281668  58.0146484  79.4606018
  13.5122566  58.9057655  79.8097229  12.8970098  57.5356827  79.9976883
  82.0565491  31.4359741   9.4115496  82.7523956  30.8465767   9.1206150
  82.0254059  31.3194599  10.3611212   7.1320758   0.2472030  68.6914673
   7.9928069   0.6145239  68.4903488   6.6618938   0.9608643  69.1225662
  70.4427338  69.4539490  77.6355667  71.3821945  69.4610977  77.4522629
  70.2457657  68.5400696  77.8411331  56.7025528  70.5745087   5.6087241
  57.1238747  70.4290085   4.7616429  56.4463692  71.4966660   5.5935531
  21.7111530  54.2294159  47.3511848  20.8469105  53.9851418  47.0200539
  21.5348396  54.9070778  48.0038071  67.2932739   9.6435852   2.7481201
  67.7562332  10.1762333   2.1014440  67.5095367  10.0462685   3.5891380
  47.4237785  29.0455933   2.6728284  47.9501076  29.5064888   2.0195403
  47.7926102  28.1626663   2.6980121  33.6525307  13.9426289  87.6798630
  33.4870834  13.3778458  86.9249573  34.3110085  14.5658817  87.3729630
  44.2293167  38.2488823  72.8520966  44.2070503  39.0642624  72.3512039
  43.4259491  38.2653046  73.3722534  46.6576614   4.6878729   4.5630970
  47.4949341   4.3339615   4.2631693  46.0183029   4.0108466   4.3415437
  22.8674660  67.6404266  68.6131744  23.3800068  68.4478607  68.5733490
  22.7664700  67.3755035  67.6989288  45.0498581  69.6312561  67.2371750
  45.6119080  68.9731979  66.8281555  45.2261848  69.5477829  68.1742783
  20.4356117  13.0589266   8.8902359  19.8865795  12.3259287   9.1686373
  19.9033527  13.5256729   8.2459679  21.0173874  23.4126091   5.1587315
  20.4443531  22.6773643   5.3761649  21.4377842  23.1542187   4.3385282
  40.8274612  25.7495098  57.6286850  41.2296410  26.0235443  58.4529381
  41.4889412  25.1977940  57.2112122  82.9909821  32.9754944  40.4655838
  83.9171524  32.7869720  40.6169243  82.9682083  33.9083099  40.2521248
  65.2997742  66.3680878  10.1510944  65.8470840  66.4972839  10.9256821
  65.1731567  67.2486115   9.7977123  21.9084091  62.7258148  87.7218094
  21.0793438  62.2554703  87.8093262  22.1612320  62.9349136  88.6210251
  61.8531990  42.3853416  82.0301819  62.0054207  41.9934578  81.1702423
  61.7240791  41.6381912  82.6144104  38.3156471  71.3115158  68.4685287
  37.8413315  70.4835129  68.5437698  37.6699371  71.9267044  68.1209030
  32.7855301  49.1500511   6.1566377  32.1618996  49.8751106   6.1166439
  32.6790199  48.6961327   5.3206668  35.4972572  52.7045135  73.7716522
  36.0185280  52.7350235  72.9694214  35.2360725  53.6129875  73.9222717
  64.1451111  12.8020258  36.3657532  63.9592972  11.9388895  35.9960175
  65.0199661  13.0176811  36.0427170  56.3175316  13.2391863  41.0024567
  57.0279579  13.6806021  41.4679413  55.6979408  13.9380426  40.7928429
  37.8766823  19.0072594  61.6494408  37.9821053  19.8206196  62.1429634
  38.7602158  18.6427975  61.5968285  62.7435570  26.8772469  52.9982986
  63.5669289  27.0879688  53.4386253  62.3505402  26.1929283  53.5400314
   4.8758368  66.7298965   7.0589819   4.7685027  65.8181992   6.7878456
   5.7807708  66.7834244   7.3663268  62.0243187   3.6988440  42.0296822
  62.6297150   3.6289744  41.2915459  61.8914871   4.6400766  42.1422386
  25.8511124  34.6833687  80.5742722  25.0895691  34.9437904  80.0561371
  26.4424381  35.4344673  80.5251312  38.4242210  23.7119427  11.0476637
  38.0003738  23.8252506  11.8983974  39.2434616  24.2015171  11.1211271
  51.2010384  65.3049240  20.7957458  51.6902885  64.6156387  20.3465767
  50.2954369  64.9948959  20.7955036  55.2518387   7.5046668  48.9859238
  56.1255646   7.5251327  49.3763237  55.4117012   7.4622445  48.0431252
  45.6664238  54.0666542  76.7280731  45.3514328  54.3353386  77.5911102
  46.4814415  54.5540962  76.6081467  35.4398155  42.0819397  29.9897270
  35.6373405  41.6132050  30.8005943  35.8356743  42.9451714  30.1095676
  84.1531601  70.9540863  72.8292465  84.2046585  70.0425110  72.5418091
  84.1099701  70.9020767  73.7840576  39.4045296  35.5775261   7.7582583
  39.7103958  35.9471664   6.9299817  40.1998672  35.4663086   8.2791204
   1.3469976  50.5568657  32.6807823   1.7309922  50.7805862  33.5285645
   0.7203854  51.2597046  32.5087090   4.0240159  68.8803864  14.0290022
   4.8976727  68.5242081  14.1905394   3.9103799  68.8152847  13.0808029
  26.6082802  30.3128510  15.8132639  25.7681904  30.1770916  16.2515030
  27.2159424  30.5267220  16.5212460  80.4370575  14.9913836  81.7580566
  80.3230743  14.0425739  81.8128433  81.2869568  15.1545324  82.1670685
  30.9056034  41.2641335  66.8490295  31.4100056  40.4759712  67.0505447
  30.7313099  41.6616020  67.7021790  59.0162773  67.3292694  65.4687195
  58.2959366  67.3841934  64.8407669  59.3484955  68.2248001  65.5310440
  70.4949493  46.4918633   5.2354164  70.3449631  45.7112732   4.7021117
  69.8012772  47.0974388   4.9740214  68.5834885  45.4659729  15.7656994
  69.3227539  45.4677544  16.3737392  68.3076324  44.5502129  15.7267218
  57.5885086  19.9677792  79.4266815  57.2397003  19.5759926  80.2273483
  57.5017853  20.9110794  79.5641479  53.0685654  52.9145660   2.8585167
  53.6291008  52.6560059   2.1269579  53.3252907  52.3330231   3.5741506
  52.2182159  67.1211777  10.8731413  52.7413635  66.4849777  10.3855000
  51.3664780  66.6980667  10.9815388  71.5436096  64.1810913  18.7775097
  72.0173798  65.0124130  18.7517357  71.1436386  64.1063919  17.9110928
   7.1185966  55.6786690  21.8344154   7.0715480  56.3823357  21.1872158
   8.0300961  55.3878059  21.8061504  15.0765209  62.2429047  60.0368576
  15.8889294  62.6699028  60.3086967  14.4656439  62.4115486  60.7542267
  22.8277950   7.9567895  10.3571901  22.0939941   8.4576492  10.7134314
  23.2320938   8.5450153   9.7194080   5.5608997  35.5672150  32.0644379
   4.6064868  35.4942894  32.0613785   5.8045521  35.4835396  32.9863167
   2.8638787  41.3572044  66.3029480   3.3079417  41.5310173  67.1329041
   3.4373362  40.7395210  65.8492508  39.4151993  58.0365448  16.4380398
  39.3437271  57.8433495  17.3728123  38.5527153  57.8221550  16.0825272
  37.9691238  62.0055161  50.5870857  38.3291054  61.7566833  51.4384003
  37.0324173  61.8226738  50.6604309  49.2359467  58.3474731  80.1870804
  48.4961548  58.4818306  79.5947189  49.5502968  59.2303734  80.3817749
  76.7454071  36.9518166  38.4008522  76.0458298  36.3005829  38.3486443
  77.0966187  36.8556099  39.2860794  11.4182863  30.2935314   9.5352430
  12.0113211  30.3520355  10.2843218  11.6168642  31.0696392   9.0113592
  28.7143574  37.5339432  61.6793747  28.1849442  38.2505493  61.3294792
  29.5784206  37.9210396  61.8200188  13.3282919  60.9030495  39.4323769
  12.7053499  61.0503349  38.7206993  13.3953228  61.7510185  39.8713379
  21.9086189  43.6498985  30.4776096  22.3595886  44.1321526  29.7845802
  21.2029457  43.1863403  30.0266476  56.2394791  60.2439880  13.1930552
  55.6774597  59.8947601  12.5013857  56.0684166  61.1857643  13.1880035
  53.4703560  54.6059647  14.3931150  53.8695641  54.5876808  15.2629013
  52.5479736  54.4028320  14.5486126  53.2234764  25.2919846  11.7440453
  52.8839569  25.9285393  11.1149540  52.4670029  25.0612068  12.2832289
  36.4309235  67.1388931  58.6973343  36.3752556  66.2277756  58.4092522
  36.3747940  67.6493530  57.8895531   4.5587349  66.7137527  84.2002640
   4.8260942  66.8093033  85.1143875   4.1985259  65.8284988  84.1473541
  26.7339535  43.5639610  59.0749779  26.9182396  44.4245224  58.6985435
  26.8562164  42.9533768  58.3480148  11.3103724  63.6969795  46.9553642
  12.0988474  63.9646034  47.4275017  10.6945229  64.4172897  47.0899620
  44.2832565  42.2173042   4.6495395  43.7506142  42.1023521   5.4365005
  43.6583252  42.4794121   3.9735255  47.2799187  22.0125408  86.4341125
  47.8843651  21.7121563  87.1128159  46.6644135  21.2878284  86.3237381
  70.0346832  27.4013748  75.1930923  69.4268188  27.5221157  75.9225845
  70.9025955  27.4540825  75.5933075  56.9971733  63.1656494  49.0930595
  57.9201889  63.1458397  49.3458099  56.8710861  62.3650932  48.5837059
  63.4898224  58.2525520  50.4129677  63.9663162  58.4848709  49.6159630
  64.1649475  57.9310532  51.0105324  81.4105988  62.3333588   1.7611372
  80.5357819  61.9523277   1.8368953  81.3304825  63.1987419   2.1622961
  68.2818756  40.7487450  32.3901825  67.6198044  40.0971832  32.6211815
  68.0092545  41.5414543  32.8522682  74.2621307  43.4426308  73.5212784
  73.4631271  43.6538010  73.0383377  74.8886032  44.1149940  73.2535248
  39.4474945  30.5015621  28.6306038  39.0479660  29.8514633  28.0526962
  38.8870201  31.2729950  28.5469913  17.5680332  22.8629799  69.5239410
  17.9582329  23.0342808  70.3810501  18.2060318  22.3065376  69.0772171
  52.7389450  23.5293388  29.5564690  52.4185486  23.5262833  30.4584484
  53.5971336  23.9500885  29.6085625  33.0503426  36.1504517  83.6381912
  32.4706841  36.3024254  82.8917770  32.5284805  36.3988876  84.4011917
  74.2903214  67.1500320  82.3386459  74.3289642  66.3243637  82.8213501
  73.5243912  67.0603485  81.7715988  42.7105217  18.2323341  20.7314053
  42.7185135  17.7550335  19.9017353  43.0152206  17.5950069  21.3773174
  64.9281845  61.7532730  63.4950104  64.0761871  61.6815567  63.0646706
  65.3620682  60.9209290  63.3074532  37.7220573  68.8303452  49.2705727
  37.0630798  68.8003235  49.9641724  37.2152290  68.8992615  48.4614944
  45.2546158   2.8419993  75.2841873  44.7032318   2.0613825  75.3375626
  46.0224495   2.5593741  74.7874222  60.3163109  19.4670658  73.3415375
  60.4938812  20.0588627  72.6104584  59.3870888  19.2535973  73.2566376
  33.7931480  62.5348587  86.7014847  33.0088425  62.8195114  87.1706009
  33.8229332  63.0926056  85.9241409  83.6198807  44.9643326  37.4925652
  82.7425613  45.1345558  37.1496696  84.1476517  44.7749367  36.7168007
  35.5697517  69.0683289  16.8000107  36.3921661  68.6092377  16.9705963
  35.5151291  69.1151962  15.8455200  17.6786785  45.4302940  28.5610714
  17.3689671  44.6960831  29.0913963  18.0305462  46.0533485  29.1968555
  21.6799698  14.1388454  68.5029373  21.9095993  14.6454840  67.7239532
  22.5146885  13.7916880  68.8175201  45.0336266  51.7876396  13.3939114
  44.4990654  52.5715828  13.5200596  45.9288254  52.0773125  13.5698233
  58.4292603  40.2807999  56.7790337  57.6279526  40.1935005  57.2952881
  58.1262360  40.3255005  55.8721657  50.9183807  55.0857391  60.6828690
  51.0042915  54.5602493  61.4782982  49.9940720  55.3332558  60.6579971
  32.6143608  61.6834717  58.2213707  31.9919415  61.3147316  58.8481560
  33.4125710  61.1701546  58.3462639  78.9802017  15.4636860  58.8217812
  78.7092514  15.8404694  59.6589470  78.1596146  15.2889900  58.3609695
  73.1490097  44.5365219  61.9772491  72.7207642  44.2627258  62.7883415
  72.4361191  44.8636894  61.4286346  64.2359848  13.3789148  41.9238701
  64.3495941  13.5921402  42.8500786  65.0493927  13.6676893  41.5100899
  10.4654922  53.2113075  10.7650385  10.8481255  52.5187950  10.2262878
  11.0439739  53.2704887  11.5253601   1.6943091  54.8722076  55.6480026
   1.8871228  54.7914505  56.5820999   0.7466441  55.0013123  55.6093445
  68.2272644  57.5684700  26.3059845  68.7349548  57.2776108  27.0635338
  68.4202576  56.9228783  25.6261349  59.3782730   9.5138521  46.6747055
  59.9623260   8.8467035  46.3141136  59.9620361  10.1274986  47.1206818
  70.5615005  61.4903450   9.9838514  69.9436111  61.0353317  10.5560493
  70.0117722  62.0464096   9.4317427  70.1159134  45.1768951  49.7382660
  70.9541550  44.7667465  49.9512634  69.5467224  44.9552994  50.4752502
  69.3842697  27.6220913  83.0441666  68.9017868  27.0127277  82.4854889
  70.2488785  27.6857338  82.6384201  73.6583328  19.7713070  13.9927616
  72.7290344  19.6337948  13.8091068  73.7048950  19.8514614  14.9454632
  43.8389931  28.9481697  69.6176224  43.1563110  29.5855217  69.4079514
  43.7965736  28.8561535  70.5694427  37.1638985  17.1093159  14.0425482
  38.1000290  17.2805309  13.9397030  36.7365913  17.8692055  13.6473122
  21.7071590  53.0999260  64.1360474  22.6445351  53.2856789  64.1912994
  21.6403294  52.1574135  64.2891388  71.5680389  60.6942291  32.3441658
  70.7771301  61.2208557  32.2285690  71.8039017  60.4186859  31.4583473
  79.7595520  60.9634399  73.3775635  80.5563660  60.7956924  73.8807373
  79.1446686  60.2913589  73.6715927  39.2866859  37.3085976  41.2075577
  39.4196739  37.7192116  42.0619240  38.6267700  36.6336594  41.3663177
  48.8480110  32.2786751  81.7246017  49.0643120  33.2045898  81.6144943
  48.7989845  31.9363823  80.8320465  54.7537651  48.3017998  21.1821480
  54.3267479  48.2166138  22.0345745  54.0317116  48.3316193  20.5544682
  76.4747391  63.8559418  61.5128822  76.3159332  62.9120674  61.5022354
  75.6649017  64.2388992  61.1756325  19.7381611  26.8521996  74.3318558
  19.0035267  27.4464684  74.1789246  20.0083828  26.5751648  73.4563751
  41.6885109  63.1403923  44.0525360  40.7609215  63.1607170  44.2879028
  42.1226654  62.7708435  44.8214111  68.7718658  44.8429832  35.4490280
  68.5492020  45.7729607  35.4913750  68.9827957  44.6058426  36.3520813
  75.1626511  42.5248756  12.4018259  75.1331635  43.3302269  11.8853292
  75.3238983  41.8339958  11.7592373  17.4295750  70.7200699   4.5863523
  17.2399387  69.9209976   5.0780363  18.3072624  70.9741592   4.8715377
  61.8071899  38.7030525  74.4544601  62.4581795  38.0589485  74.1759415
  61.0101967  38.1922112  74.5961456  31.4480515  52.6786728  46.6584358
  32.3324089  52.7847404  47.0089951  30.8741894  52.9933243  47.3569412
  57.1065178  31.4690323   4.6977921  57.4567070  30.8863411   5.3716407
  57.7355423  32.1891632   4.6533880  48.0310020   7.1222634  84.0233612
  47.5492821   6.4533210  84.5098801  48.9194870   6.7733407  83.9521027
  50.5733833  33.0348434  36.7472763  50.8191872  33.9510384  36.6192131
  49.7434731  32.9418793  36.2794724  46.3726730   0.0356750  77.9856567
  46.8829422   0.7364756  78.3915405  45.6442223  -0.1105798  78.5891495
  62.2720146  57.6312027  36.3644905  62.9472160  58.3090706  36.3356819
  61.9652328  57.5601501  35.4605751  46.8970566  24.3486118  71.2493515
  46.8600388  25.3049011  71.2300262  47.4298286  24.1141357  70.4894867
  21.5558968  42.4300613  62.5507812  20.6727352  42.6250534  62.2373581
  22.0057526  42.0661659  61.7882576  79.8321915  25.4842606  48.3590164
  79.3881607  26.1254673  48.9139214  79.3046188  24.6898594  48.4416580
  38.7403679  37.2207108  71.0309982  39.1058388  37.9494896  71.5325394
  38.8760872  37.4676323  70.1162033  29.9086380  67.8919067   6.9354491
  29.0254326  68.2228241   6.7721176  30.3881912  68.6470871   7.2759757
  24.8137531  30.7687721  18.8556652  24.5902214  29.9712734  19.3355217
  24.3839951  30.6658115  18.0065842  19.4660625  23.7225056  88.2366486
  19.8525391  24.4828720  87.8022461  20.1296673  23.0374470  88.1557007
  62.8643456  22.1912251  55.0692215  62.1989403  22.1945934  55.7573051
  62.5142784  21.6027145  54.4003868  24.1728668  66.1882172  43.0157127
  24.3059330  66.0920563  43.9587288  23.4136181  66.7659988  42.9386520
  20.3710232  49.3900528   4.4075365  19.9780083  49.4289055   5.2794662
  19.7020741  49.7528381   3.8269117  58.6632729  34.4569588  25.7926006
  58.0903893  34.3700523  25.0307064  58.0785789  34.7207947  26.5030594
  41.7909088   9.0430651  76.9126587  41.7856903   8.1068296  77.1118240
  40.9023514   9.3359299  77.1149750   8.8511457  55.6916466  51.2416115
   8.8682203  54.9633522  50.6207047   8.5492125  55.3004532  52.0613899
  36.0112267  59.6131668  41.5180016  36.0851974  60.1506119  42.3066177
  36.9077454  59.3324089  41.3345337  84.4202728  64.3832779  45.3646927
  83.6165695  64.0496063  45.7633820  84.6020432  65.1961212  45.8363762
  33.5072708  37.3655128  64.8724747  32.9865379  37.8948975  65.4764786
  34.3945198  37.7161293  64.9505310  49.9083786  10.3602047  39.5067444
  50.7460365  10.1535549  39.9212990  49.7826996   9.6648579  38.8610458
  58.5810127  48.2603340   3.9383054  57.9457741  47.5500145   4.0286002
  58.2987061  48.9165459   4.5754228  83.7833557  33.1799736  84.2820129
  84.1151581  33.0834351  83.3893661  83.4991684  32.2997704  84.5284042
  57.2184753  42.1658974  52.8551445  58.0513916  41.7199516  52.7014694
  56.5955658  41.7122345  52.2873344  19.6715717  69.9488373   2.9614809
  20.1818905  70.2904282   3.6957328  19.5941353  69.0114670   3.1391461
  31.6327305   5.4614420  72.0671463  31.6415596   4.5070109  71.9949341
  32.1174431   5.6452494  72.8718185  22.7911930  30.7847424  12.8601694
  23.7081070  30.5345573  12.9737835  22.4133949  30.0784874  12.3360472
  14.0660982   0.4063914  52.7043877  13.5908298   1.0395176  53.2424431
  13.5301456  -0.3860124  52.7373047  21.2057323  68.6358566  33.8437996
  21.5990219  69.4528961  33.5371971  21.7676697  68.3559113  34.5663605
  71.3358231  40.0363808  82.7039032  72.2336044  40.2947998  82.9123306
  70.8125916  40.3847427  83.4257812  49.0046501  34.6471977  61.5830879
  48.4883270  33.9332581  61.2090111  49.8926888  34.2949371  61.6425323
  58.9194260  64.6651611  12.7762127  58.6794662  64.2973709  13.6267300
  59.4206467  65.4525146  12.9885483  51.6931648  30.7911434  40.1873970
  52.1142044  31.5751038  39.8347435  50.7789574  31.0458469  40.3122253
   6.0881958  19.1213760  17.2946892   5.3984680  18.9211597  17.9274769
   6.7874908  18.5002022  17.4980640  57.8737411  57.7248306  21.8675594
  58.5221634  58.4205933  21.7594090  58.3722458  56.9845009  22.2134380
   4.5997872  45.1573029   7.2980742   3.8441281  44.7215767   7.6922240
   5.1423841  44.4420776   6.9660039  69.3434067  44.4205322  37.9892921
  70.1359558  44.9286690  37.8164139  69.4603653  44.0899467  38.8799438
  55.3220024  59.7233582  42.0891724  55.6143265  59.5478363  41.1947594
  54.3880272  59.9143066  42.0027695   8.7684622  27.2146111  73.7751541
   8.7808933  28.1179161  74.0915680   7.8692241  27.0775814  73.4771118
   6.7025905  29.5071201  44.3388519   7.4323888  30.1037178  44.1724281
   6.0839906  30.0236340  44.8553581  39.3828506   1.4011244   5.6759200
  40.0838661   2.0430191   5.5628781  38.7530937   1.8333230   6.2528453
  50.7627640  65.7509308  27.1559620  51.0724144  66.5790024  27.5228939
  49.9338379  65.9721298  26.7314835   4.3462200  52.1125946  85.8277130
   3.5185959  51.8254471  86.2134781   4.2731643  51.8785286  84.9024506
   4.9587526  67.9820938  -0.1408436   5.1705637  68.9114609  -0.2282834
   5.5352340  67.6696320   0.5564862   6.4232044  39.0209618  73.7199402
   5.9958062  38.2026939  73.9729233   6.0172586  39.2551270  72.8853073
  63.3787079  56.2127533  53.8057861  63.6533508  55.5140800  54.3996429
  63.3915138  55.8085175  52.9382286  32.4954147  43.8160782  82.0391541
  32.1696930  42.9505463  81.7921982  31.9840832  44.4253273  81.5066223
  23.6784344  69.4306335  59.9022255  23.0689049  69.2352600  59.1905098
  23.7666492  68.6035080  60.3758507   0.8298633  17.7249298  62.6897850
   0.5436422  17.9102268  63.5841980   0.0310004  17.4631519  62.2320518
  40.3881531  36.0284386  22.2565269  40.9081917  35.8756332  23.0454769
  40.3800926  36.9802704  22.1556053  78.7984467  52.9359016  82.8038483
  78.4452591  52.7582245  81.9321136  79.5808411  52.3874931  82.8616257
  86.8910522  63.4551811  45.1046410  87.2210159  64.0562210  44.4367294
  85.9663544  63.6844521  45.1973877  16.4175549  38.3602753  26.6381435
  16.2889824  39.0665550  26.0049973  15.7853308  37.6894302  26.3802910
   5.2737374  59.2175293  67.9587936   4.5104971  59.5887299  67.5161819
   5.4915533  59.8567047  68.6372070  18.1802483  14.4488173  79.5376129
  18.2653236  13.6276712  80.0220871  18.7611866  14.3436680  78.7841644
  64.1140060  30.7420979  30.2980042  64.1046677  29.7849541  30.3024921
  63.8051338  30.9805393  29.4239464  51.7141838  13.4583216  10.6665201
  51.4060936  13.1331139   9.8206177  51.3923531  14.3588161  10.7085667
  73.5599594  57.9656410  21.9250870  73.2485123  57.1067390  21.6395779
  72.8237762  58.3382187  22.4103203  66.9010773  36.9435463  85.7497330
  66.5215378  36.7825813  84.8858643  67.8328018  37.0824051  85.5799026
  15.1798697   0.1459917  14.4276791  15.7668753   0.7285630  13.9457378
  15.2740011  -0.7017515  13.9932795  62.4020233  10.0711536  22.1795979
  63.1807747   9.7589445  21.7188377  61.9263268   9.2740698  22.4132710
  86.7047348  43.5459671  42.7841454  85.7639618  43.3820190  42.8497391
  87.0507355  42.7773895  42.3304863  52.5082664   6.5807338  59.7082367
  51.8798180   6.8885088  60.3613510  53.0304832   5.9241462  60.1691208
  27.3733177  21.7415161  82.4424286  26.5625267  21.3924599  82.0722809
  28.0003185  21.7080479  81.7199478  48.3425217  68.6806488  53.5072212
  49.2588463  68.7591324  53.2418442  48.1471291  67.7476196  53.4205284
  18.1564884  66.8890610  73.6972122  19.0428677  66.5369873  73.7784958
  18.2671318  67.8366776  73.7747116  59.1677742  67.2703400  57.6795616
  59.9197426  67.3063126  57.0883942  58.6455841  66.5352097  57.3584175
   2.0185118  22.6823406   8.0918646   1.6635163  23.5682220   8.1655273
   2.4707775  22.5357018   8.9226379  29.0929356  39.3728027  56.1838341
  28.9291019  38.7203712  55.5028648  29.8506622  39.8645020  55.8671074
  69.7751846  67.4627380  63.9932137  70.5721512  67.8984985  64.2951736
  69.3538132  67.1519928  64.7945404  22.5509129  23.3748264   9.4679279
  23.1478271  23.2948399   8.7239332  23.1124039  23.2775726  10.2370195
  52.0261841  44.7600288  62.1930733  52.8769112  44.8412056  61.7619019
  51.7940521  45.6564407  62.4355469  17.6761894  11.6049709  70.1448364
  18.2335014  12.3776159  70.0517960  17.6467552  11.4430237  71.0877762
  82.7247009   4.8883491  12.9890804  83.3280029   4.9794140  13.7266216
  82.8665771   3.9962883  12.6723289  42.0762901  65.5778275  39.2229156
  42.3094292  65.2667923  38.3481979  42.0527000  64.7860489  39.7602730
  77.5845718  27.3486977  54.5790329  77.7605743  26.4980450  54.9810791
  77.0831757  27.1417179  53.7903671   1.5140533  35.9493866  71.8400345
   0.9101472  35.6361771  71.1666641   2.3360703  35.4954338  71.6544342
   3.9160900  33.1155701  81.8184814   4.0113611  32.1674500  81.7277908
   3.8473923  33.2602081  82.7621918  13.2560825  41.2479515  81.5364685
  12.7306013  40.4480362  81.5212250  14.0924730  40.9778938  81.9156113
  62.3287697   6.8146458  80.3223877  63.0853195   6.2284741  80.3059540
  62.3172760   7.1659713  81.2127075  77.5878754  20.1505508  83.9471436
  77.1823349  19.3555775  83.6010513  77.1747131  20.8624325  83.4585266
  38.0979919  29.4913006   3.9495437  38.3946228  28.5855713   4.0383987
  38.7843933  30.0103455   4.3686776  71.0570831  26.4227943   0.0277763
  70.7994080  27.2899799   0.3405418  70.6393967  25.8144321   0.6374211
  56.8501320  57.9517326  52.2467957  57.4340134  57.4917145  51.6437263
  55.9850655  57.5810699  52.0721550  25.7664223   6.0230069  17.3998985
  26.0899715   6.8965330  17.6201248  25.7090168   6.0227041  16.4444199
  79.2795334  45.0650291  26.7639580  78.8700714  44.2007484  26.8038788
  79.3370514  45.3452339  27.6774178  58.9702454  34.9106026  53.4371605
  59.7050056  34.7872200  52.8362160  59.1337166  35.7615662  53.8438187
  11.1189737  35.4763527   2.3778217  11.9706726  35.8816605   2.2148373
  10.5116072  36.2132835   2.4431765  59.0474358  13.2958193  37.6076546
  59.4693756  12.4908972  37.3071594  58.2299843  13.3374023  37.1113892
  25.8082752  57.3476143  27.0791645  26.3574829  58.1148033  27.2404804
  26.4285202  56.6248169  26.9838238  74.8318329  15.8982372  60.6989098
  75.7441559  15.6349621  60.8197021  74.8552475  16.8550911  60.7096558
   5.8416839  15.0755854  27.2077770   5.7163115  15.0418987  28.1561337
   5.2645650  15.7807961  26.9147873  79.9915848  64.6998672  37.2924232
  80.6552048  64.0152435  37.3768654  79.1821365  64.2264328  37.1003723
  81.1158676  63.9111290  54.4050941  81.1878128  63.0128479  54.0823746
  80.5596390  63.8430061  55.1811104   1.6300573  54.6488724  58.3475685
   2.5297937  54.4683075  58.6197853   1.1045578  54.4785461  59.1292801
  46.8628044  51.9420052  66.0414047  47.4399681  52.6888847  65.8823929
  46.8147316  51.4925652  65.1976471  34.4196243   2.2106984  44.5761642
  35.0466957   2.8455498  44.9225426  34.4711685   1.4694355  45.1795731
  80.5911789   6.7236500  74.3142319  81.5376816   6.8023973  74.1951828
  80.2387772   7.5505633  73.9852066   4.8795352  44.6363525  14.8859682
   3.9721789  44.8457947  14.6644526   5.3967729  45.0544357  14.1975613
  24.1271877  44.7445259  59.2026329  24.9651012  44.2864342  59.1371574
  24.3554134  45.6163445  59.5252419  47.1816368  50.0194550  54.9976501
  48.0795822  50.3445511  54.9325409  46.7331810  50.6628304  55.5464516
  70.5906448  56.6291618  62.3859940  70.9633255  57.0098343  61.5907364
  70.8241196  55.7020149  62.3398857   4.6299624  36.4838448  18.9392376
   4.8406725  36.8415527  18.0767517   5.4186654  36.6345825  19.4602528
  75.2819138  38.9723358  42.7574768  74.6666031  38.2579956  42.5921288
  75.9135056  38.6059723  43.3764305  49.6897545  48.0570526  22.7076492
  49.3331642  48.6321411  22.0306339  49.3491325  47.1896706  22.4888973
  13.2981052  37.6831741  20.7396793  12.8051767  37.0274429  20.2464542
  12.6786919  38.4014664  20.8685875  42.8628540  60.3644905  55.0288887
  42.0644798  59.9113998  55.3000793  42.8048553  61.2232971  55.4476051
  53.6304398   2.8690608  21.5285015  54.4432030   2.8442993  22.0335064
  53.1253586   3.5804400  21.9222889  57.2801933   8.8249550  58.5459557
  57.5030212   9.2397022  57.7125511  58.0733414   8.9093742  59.0751228
   5.1835756  44.8805199  33.5645142   5.1976118  43.9333687  33.4269142
   4.2689047  45.0800362  33.7640190  65.1799774  30.9299774  79.2629700
  65.0298309  30.2385292  78.6183090  64.3022995  31.2037716  79.5293503
  64.3826065  65.9199524  87.7517700  64.7833405  65.0800095  87.5278244
  64.1290283  66.2965927  86.9091110  47.9503174  42.3375168  46.9695930
  48.7094421  42.8931198  47.1464233  48.1240616  41.5323257  47.4571495
  60.3588791  62.7797203  66.8676682  59.9468040  63.6334419  67.0002899
  61.0149765  62.9334717  66.1878738  27.5903969  57.9986420  36.1048698
  27.1617355  58.7674637  35.7288399  27.2109756  57.9168472  36.9798470
  79.6939011  45.8517838  11.3962898  80.5479584  45.9276237  10.9707623
  79.1590652  45.3591347  10.7738123   9.0527763  38.0433044  10.0435810
   9.4689646  38.8693008   9.7971058   8.3375568  38.2998276  10.6257219
  58.7711754   1.0573043  29.9614353  59.2154274   1.2180855  29.1289558
  58.3588562   0.2005077  29.8513184   4.0661240  40.1397820  77.7176971
   4.0081511  41.0925789  77.7887573   4.9580741  39.9326363  77.9965363
  56.0444641  27.8039589  55.4560509  56.9515190  27.5245991  55.5803413
  55.9254417  27.8156357  54.5063553  36.9629059  46.8575439  79.3557892
  37.4601479  46.6135101  80.1364441  36.8534012  47.8056946  79.4282532
   7.9952650  28.1944370  66.4992599   8.6429739  28.3604336  67.1842041
   7.7699437  27.2697926  66.6017075  53.7572136  47.9317665  38.3175049
  54.0361290  48.4319572  39.0844765  52.8019981  47.9928055  38.3261528
   0.7861717  39.4655724  27.2768021   1.7374446  39.3861809  27.2060280
   0.6022144  40.3712654  27.0275879  63.6868782  71.0228043  18.3626671
  63.6894989  70.7402573  17.4481239  63.5248718  71.9653091  18.3216953
  85.0401764  21.1048241   8.3906841  85.8476868  20.8279572   7.9576621
  85.2784958  21.9103909   8.8494835  30.4915028  46.3827400  71.5127945
  30.9954414  46.6375237  72.2856827  29.6114693  46.7208443  71.6785049
  12.7018881  70.0853882  21.9833241  12.0146093  70.7368927  21.8439732
  12.9960260  69.8552704  21.1019821  60.8108444  52.4020576  42.1678200
  61.2349434  53.2098656  41.8783073  60.1483612  52.6909752  42.7954140
  41.3885384  35.3826561  44.1338310  42.1746140  34.9415779  44.4559631
  41.5518379  35.5110435  43.1994438  13.5099516  69.0523071  30.2084446
  13.1288157  69.7697678  30.7146225  13.7425385  68.3942032  30.8634529
  82.1748047  42.9944839  32.2917213  82.4906082  42.1208420  32.0609665
  81.9512329  42.9308357  33.2202644   6.4206009  52.9977112  27.8296757
   5.8136077  53.6664009  27.5124245   6.8397794  52.6598740  27.0382309
  31.8217258  39.3024368  77.8118286  31.2354488  39.1222000  77.0769653
  31.5969353  38.6403427  78.4655380  34.7118568  64.5659103  56.1106911
  35.1278191  64.7287140  55.2641106  33.9576302  64.0136871  55.9047165
  21.1116142  54.8770828  59.6363869  20.9292126  54.2485046  60.3348465
  20.4555187  54.6870766  58.9658165  59.3373260  37.5686378  54.1338234
  59.0411110  37.4571877  53.2304573  58.7300758  38.2069893  54.5079727
  37.6320801  69.5736542  25.6437511  37.6738205  69.8588257  26.5565319
  38.3936882  69.0039902  25.5357304  62.9922447   8.4103603  41.4487877
  63.2355347   8.6905851  40.5664520  63.8263359   8.3175449  41.9091263
   7.6907058  59.7578773  14.2875309   8.6294308  59.6853447  14.1150036
   7.4675183  58.9462395  14.7432280  56.9188652  61.7823792  72.3805923
  56.0027428  61.8689842  72.1170578  57.1294823  62.6198196  72.7935867
  12.5701160  31.9583454  16.9545994  12.3212547  31.0347061  16.9200974
  13.3995037  32.0008736  16.4786396  55.0493813  36.1484985  12.2335081
  55.3362198  35.3612480  11.7706976  54.3606186  35.8420105  12.8233404
  82.7149734  53.4129906  48.1758003  82.8249054  52.9760246  47.3312836
  82.1853256  52.8057671  48.6925125  29.9331226  51.7215157   8.1752148
  29.0321350  52.0350952   8.2534733  30.3951302  52.1360130   8.9038935
  78.2208405  14.2931900  18.9082165  78.9482422  14.8849697  19.1003590
  78.6398392  13.4573736  18.7030678  46.4448509  12.9464903  39.9456749
  46.5822754  13.2861176  40.8299828  47.3260231  12.8647890  39.5808601
  31.8480949  35.3565598   5.9860249  31.5322952  35.7829285   6.7827120
  31.1488152  34.7483673   5.7465587  33.7715607  46.7965622  19.1199436
  33.6966133  46.5249329  18.2051582  34.1609077  46.0424385  19.5625858
  69.1723404  33.8453941  76.9205780  69.7482300  34.3239517  76.3242798
  69.5227509  34.0303535  77.7919159  38.3007355   9.0631456  14.8346014
  38.2257614   9.9838524  15.0854187  37.9425545   8.5817986  15.5804176
  14.2393579  17.9142456  74.1910095  13.7586508  18.6296482  73.7746582
  15.1497669  18.0538807  73.9304504   5.7634921  55.6873436  17.7627144
   6.1794276  54.8253250  17.7503853   5.1707649  55.6780510  17.0111694
  37.9173660  54.2560997  56.9914932  38.2224236  54.8928680  56.3451996
  37.0770264  53.9512672  56.6492386  60.5692406  17.8986111  80.8364716
  61.0146523  18.7456989  80.8532944  60.0062561  17.9393444  80.0634155
  72.1804733  32.4874458  60.1935844  72.2045212  32.8911591  59.3260193
  73.0761871  32.5696983  60.5209427  86.3074036  31.4869232  33.0209961
  85.7637558  31.7043686  32.2637672  85.8356857  30.7784977  33.4589996
  13.3960733  39.7616310  45.9421120  13.5643997  40.7005157  45.8621178
  12.5750961  39.7063026  46.4311600  60.1524925  23.9150219  21.0137539
  59.7480545  23.6054916  21.8242188  60.9907303  23.4546318  20.9733429
  71.8980789  30.8548698  40.0611610  72.8261185  30.8665352  39.8269844
  71.8610764  31.2859440  40.9150009  37.4141922  35.2661476   2.7221668
  38.1515121  35.1940498   2.1160376  36.9861755  36.0879440   2.4819942
  80.4002762  23.5349579  39.9730797  79.6670303  24.1453323  39.8955231
  80.0075378  22.7306480  40.3123016  54.6304131  49.8539200  14.3077030
  54.3645821  48.9413338  14.4206295  54.9439354  50.1207466  15.1718445
  69.6113052  66.1773682  55.5729752  69.9137344  66.4698715  56.4327469
  69.6697388  65.2226944  55.6105576   2.4504972   0.4479480  69.0474777
   3.3952253   0.5660018  68.9485626   2.2011268   1.0723706  69.7287598
  49.9873543  63.9575653  64.0860901  50.7257881  64.4604034  64.4297485
  49.8173943  64.3396759  63.2250786  82.3424606  34.8149261  78.7584763
  81.5705566  34.2499084  78.7924957  82.7819366  34.5712357  77.9437943
  46.6176186  22.3877182  14.6086931  46.4779968  22.0745068  15.5023575
  46.6884575  23.3382587  14.6963654  33.6350594  44.4270210  46.0747337
  34.1350861  43.7898254  46.5848198  34.1249390  45.2442856  46.1659813
  36.2660294  14.5791922  13.8586378  36.6070900  15.4721556  13.8083925
  36.6474037  14.1342030  13.1018219  65.8735504  12.3528538  15.1554441
  66.5100784  13.0218163  15.4075584  65.0280151  12.7997704  15.1949921
  44.2127800  10.5273705  20.9278164  43.8435631  11.2472401  21.4393826
  44.2791100  10.8749514  20.0384235   6.1935959   4.2241206  83.3834000
   5.3549218   4.3790359  82.9488144   5.9625063   3.7766709  84.1974106
  68.2001572  37.1415138  61.8241463  68.4970703  36.3224678  62.2206764
  67.2864304  36.9772987  61.5909576  53.1278954  45.5276375  71.2496185
  53.3555946  46.4183426  70.9831009  52.8693275  45.0931473  70.4368515
  40.6900024  31.5991554  11.5005941  41.4353981  31.6192684  10.9004164
  40.6359100  30.6867294  11.7848253   0.2079130  16.8773270  56.7238731
   1.0413843  16.9012585  56.2537842  -0.2857322  16.1749268  56.3005791
  27.1056328  45.3959732  48.1778297  27.3241119  46.2863693  48.4529572
  26.5739651  45.0477791  48.8935928  16.5216007   1.8444827  13.0477705
  17.4784794   1.8613904  13.0296068  16.2690239   2.7534258  13.2098179
  68.4700546  17.6712570  13.8950148  67.7186813  17.3780289  13.3795710
  69.1986160  17.1344414  13.5831451  29.8675995  22.7847214  67.7489243
  30.3064613  23.5084419  68.1959763  30.5362396  22.4210033  67.1685257
   0.8220647  25.3597984   8.2408972   0.5253779  25.5214043   7.3453016
   1.1873760  26.1970310   8.5269403  29.4729023  21.7969246   8.6975527
  30.1984024  22.1217899   9.2307930  29.8173981  21.0076046   8.2797852
  56.5230179   5.7034488  42.3648186  56.0160828   5.3820019  41.6192169
  56.3921661   6.6515827  42.3525047  75.8603516  48.5283699  42.3424721
  74.9629288  48.2160187  42.4577942  75.7899857  49.4818268  42.3893623
  28.5797844  13.3495131  66.7171707  29.4540176  13.1746778  67.0655670
  28.1552734  12.4919100  66.6939850  16.6220245  27.1232204  19.5176296
  16.1869717  27.8194580  20.0097809  16.0423470  26.3670254  19.6091423
  48.6222992  52.4244766  72.4922791  48.2760086  51.8496017  71.8097610
  48.4658775  51.9488983  73.3081207  77.8133850  64.9579468  16.1835842
  77.7286301  65.5362778  16.9415951  77.7333374  64.0754318  16.5455093
  43.7417717  59.6461220  65.4456329  43.9873581  59.6377907  64.5205078
  44.5646706  59.5030746  65.9131851   5.7560368  16.9934387  83.9928513
   5.1921139  17.7349777  84.2127228   6.2794652  16.8486118  84.7810593
  86.2125931  16.3299522  74.7503433  86.4667358  17.2527962  74.7520523
  86.6674423  15.9548664  75.5044327  63.3340645  54.7502098  30.2973194
  63.0065384  54.3367043  29.4985886  64.1342697  55.1987610  30.0240002
  14.1695976  41.6488380  33.2875252  14.3352318  42.5846596  33.1733589
  14.1509161  41.2985115  32.3969307   6.6546226  35.1117744  34.8424110
   7.2661095  35.1709328  35.5764542   6.0317864  34.4334755  35.1035995
  51.8819084  13.5517778  48.6038818  51.6559219  13.4279499  49.5257454
  51.1292038  14.0119152  48.2324753  48.2938004  42.6213455  34.8505516
  48.5397301  42.1537628  35.6487503  48.0277023  41.9323425  34.2416992
  81.4957504  12.7838640  26.4229317  81.7308655  12.0802202  27.0277786
  81.3621063  12.3435392  25.5835953  53.2727470  64.4978943  47.6408958
  54.0167274  64.9887619  47.9898529  52.7840729  65.1386948  47.1243629
   2.2194433  11.1474657   8.0754452   1.5760721  10.5214872   8.4077950
   2.4557080  11.6757030   8.8379250  73.7772446  49.8246956  88.4890594
  72.8834229  49.9883575  88.7899399  73.7042084  49.0500755  87.9315033
  50.5798302  43.1167564  52.8573723  51.2652130  42.9230385  53.4968681
  50.4587822  42.2959824  52.3799744  77.5496445  36.6853561  84.5985641
  77.9138870  37.0724487  83.8024979  78.2162781  36.8414764  85.2674942
  55.1763229  20.4838314  56.3607025  55.5716972  21.3395805  56.5268478
  54.2378387  20.6616154  56.2984276  43.5713997  63.2197189  61.3045845
  42.8473892  63.5512199  61.8357582  44.3186531  63.7646103  61.5514412
   8.0952997  37.0177917  31.6610775   7.3908129  36.7666512  32.2584534
   8.7904148  37.3423920  32.2335129  85.7545776  46.9463043  49.6167564
  85.9891739  47.2967567  50.4760437  84.8566437  46.6322632  49.7231750
  38.0125732  43.4460831  87.4624634  37.4899521  42.9328384  86.8462830
  38.3978539  42.7956161  88.0495605  77.3804703  67.4036407  75.4502335
  76.9434662  67.5437622  74.6102219  77.9331512  66.6352768  75.3074646
  15.0345306  68.3458786  11.2333231  15.3930578  68.8185272  11.9845190
  15.2760086  68.8801651  10.4767113  76.8845596  67.4511490  31.0040016
  76.1564331  67.4863892  30.3836575  77.2562866  68.3330612  30.9873543
  38.5282173  49.8376312  88.1418686  39.0275764  49.1578064  87.6894302
  38.5104218  50.5710106  87.5270004  72.8859024  51.8763847  75.2717361
  71.9813080  51.5787086  75.1751556  73.2900848  51.2303696  75.8509903
  12.9476166  36.9138222  65.6775360  12.9870815  35.9802513  65.4698944
  12.0740776  37.1851921  65.3955460  84.9280472   7.9336009  87.0228500
  85.5440063   8.2601748  86.3669739  84.0665207   8.1788626  86.6854248
  58.0118752  47.0416603  25.8159008  58.3314857  46.9096832  24.9233398
  58.7733192  46.8718605  26.3705235  67.0359039  20.1960640  20.1232166
  66.9353027  19.4827003  19.4929619  67.3816757  20.9244518  19.6073456
  19.9622459  70.7867126  55.2270432  20.8906479  70.9647980  55.0767555
  19.5056076  71.4888382  54.7636604  79.0301132  25.7945805  72.0269318
  79.2283325  26.1177120  72.9058609  78.2658920  26.3012409  71.7521667
  73.3155823   3.0096395  74.0188446  73.0602112   3.9289229  73.9418030
  72.4977112   2.5240533  73.9115219  44.4956207  56.7577477  60.1407661
  45.1238174  56.8466263  59.4240341  44.2868996  55.8238182  60.1618805
  82.1172333  64.0550919   9.4909859  81.3979797  63.9862328   8.8631659
  82.6439819  64.7880402   9.1723051  85.5963669   0.6991448  34.6541252
  85.2380829   0.4830911  33.7932053  86.1822662  -0.0294172  34.8594284
  25.6161366   8.4026575   6.0083585  26.3722801   7.8370810   6.1652002
  24.9667854   7.8276048   5.6035242  58.8953629  64.3782883  45.3630219
  59.3918495  64.1728439  44.5708580  58.4647026  63.5557556  45.5958366
  26.6137905  31.9102955  66.7306061  25.6610641  31.8179722  66.7262421
  26.9395695  31.0242023  66.8885269  13.4853439  53.6397934  79.1265488
  13.6347685  52.7166061  78.9225235  12.5591106  53.6858177  79.3636246
  37.5032349   9.8161840  84.9103775  38.0995445   9.2712879  85.4239273
  36.6492500   9.3951836  85.0088654  40.1065369   2.8832877  60.6452484
  39.7410698   3.7584007  60.5154686  41.0248413   2.9667199  60.3883743
  63.7419548  33.0059052  44.9518700  62.9600334  32.5921173  45.3173943
  63.7162056  33.9028969  45.2849998  16.6912403   7.6864142  47.4092598
  16.8805351   7.1051450  46.6726990  17.4898510   7.6724734  47.9367638
   4.4355006  26.6900005  64.4784546   5.3524275  26.7476978  64.7470551
   4.2128005  27.5766335  64.1946945  25.7259483  69.0623398  20.9543953
  25.5997887  68.2948151  20.3965225  26.2826195  69.6450043  20.4378223
  78.7795258   1.4824613  70.7453003  78.4109497   0.7049133  71.1645889
  78.5445099   1.3908012  69.8219452  43.7808304  37.7168732  20.2514019
  43.6858521  36.8082008  19.9658756  43.9804153  38.2002373  19.4496784
  69.8010635  24.1476841  22.3640118  69.2184753  23.4249935  22.5975456
  69.4745255  24.4548626  21.5182896  45.6290627  39.8363876  47.1792946
  45.5036850  40.7086639  47.5529823  45.8016853  39.9958878  46.2513962
  86.0926208  22.6456966  59.1086121  85.8447952  23.5585041  58.9616547
  85.6828613  22.4176292  59.9430695  27.3475380  38.8086357  25.8178825
  26.7699509  38.4029922  26.4644737  27.7022839  39.5782166  26.2630024
  13.2142344  30.0407143  11.5458040  13.7946930  29.3041496  11.3540440
  12.7242746  29.7642365  12.3202267  66.8229523  40.4948273  43.5090141
  66.2396545  41.1367073  43.9139709  67.6954346  40.7324562  43.8229294
  54.2350922  35.1483345  46.2936707  54.5087166  35.3074188  47.1970291
  54.3393784  34.2043228  46.1745415  53.5401573  18.9546623  77.4740753
  52.6429901  19.2751942  77.5666962  54.0308266  19.7078400  77.1451416
  41.8074837   5.8068943   5.6017156  41.4861565   6.5192442   6.1544704
  42.7408943   5.7480035   5.8054585  40.9306107  14.3826046  12.1541748
  41.8584175  14.1622314  12.0714417  40.5299644  13.5966759  12.5257006
  19.1793976  46.4497108   5.8310194  19.8965244  46.1585350   6.3942037
  19.1755447  45.8249550   5.1058340   5.9991031  68.9691391  66.4506302
   6.2520776  69.4073563  65.6381073   6.8258238  68.6688004  66.8282013
  15.4550285  46.2005157  49.4868507  14.9791794  46.5616646  48.7389374
  15.4302578  45.2532272  49.3517227  10.5125751  47.6551933   1.7320487
  10.4282970  46.7017441   1.7241818  10.1855211  47.9316216   0.8759784
   0.5746448  32.8139343  57.0225105  -0.0179269  33.1916046  56.3725433
   0.8008855  33.5470009  57.5949287  48.9637909  62.7024155  34.5823326
  49.6806564  63.1274910  34.1115379  48.2734375  62.6015015  33.9270020
  80.0025406  11.2371159  42.9908524  79.6880035  11.4329720  42.1082764
  79.2430191  11.3853779  43.5542068  59.5581131   1.8173920  45.8597641
  58.7024460   1.8105900  46.2887383  60.0460167   2.5072732  46.3094826
  59.5483017  49.6409302  55.5957413  59.7597809  49.0516205  54.8717117
  59.5055656  49.0711327  56.3636818   9.9942827  25.0889378  74.7893066
  10.5944929  24.8162880  74.0952988   9.5187473  25.8314056  74.4166946
  19.2263260  40.5021896  87.0626450  20.0123882  40.6727448  86.5437546
  18.5118580  40.5131607  86.4257431  26.5454674  42.7996521   6.8360877
  25.8918877  42.9700050   6.1578217  26.4079571  41.8833885   7.0764728
  63.4094772   3.2493587  16.0138607  63.9742126   2.5311315  15.7284536
  62.9163246   2.8881068  16.7504272  67.8138809  58.7368050  17.5437832
  68.5773621  59.0504837  17.0590725  67.0638580  59.0579605  17.0432281
  78.5271988  22.6427364  47.3793449  77.7068481  22.4826088  46.9128494
  79.2087097  22.4899216  46.7248001  22.9839401  66.1356049  37.9650269
  23.8107262  65.7234116  37.7145195  23.1545601  66.5083466  38.8300018
  10.0849428  62.3057098  40.4378815  10.4523764  61.9704056  41.2556801
   9.1379185  62.2209015  40.5482635  82.2057037  48.5554161  48.3241348
  82.9998779  49.0173607  48.0555878  82.5191498  47.8473701  48.8868561
  55.4872360   8.9668016  11.5923243  56.1820984   9.0886478  12.2392807
  55.8090668   8.2669621  11.0240993  68.9437332  57.3804817  56.5611725
  69.6996765  56.8533096  56.3025742  68.4907684  56.8459244  57.2133217
  43.0259552  50.1774902  14.7310762  43.5718079  50.2083588  13.9453764
  43.0117493  49.2524376  14.9766560  16.3190727  70.6157990   9.2840271
  15.9944525  71.1764450   9.9886751  16.1571712  71.1173782   8.4850073
  14.3833265  25.4513283  24.3668957  14.8242369  26.2715168  24.1452637
  14.5001307  25.3646679  25.3129807  58.1765480   3.9105096  36.7754669
  57.3727074   3.5414588  36.4095802  58.3357468   4.6991382  36.2568588
  39.4619370  23.8687077  79.6107330  39.5051537  23.6194134  78.6875763
  38.7158775  23.3787155  79.9564743  79.9055939  57.8581543  65.9971542
  79.8095398  58.3535538  66.8105316  79.1318741  57.2954330  65.9666519
  72.3969879  58.5382843  46.3333054  73.1830673  59.0659866  46.4741402
  71.7617035  59.1496315  45.9606094  57.4529266  53.1855965  79.0902100
  58.1723785  52.8858070  78.5345612  57.8836327  53.5564308  79.8604126
  43.5509224  33.6111755  79.5412064  44.2060242  32.9174767  79.4647064
  42.8906784  33.3906097  78.8842010   3.4141095   3.0512421  61.4964180
   3.4528525   2.1101670  61.6670303   2.5239933   3.3028491  61.7426262
  63.2674408  36.7280235  78.4668732  63.4437752  36.8341408  79.4016876
  63.2482224  37.6214333  78.1238327  21.4842110  61.4715080  81.7821121
  21.5255623  60.7551384  81.1485977  21.5151443  62.2654152  81.2482758
  72.9164200  60.0677490  78.4387360  72.8969040  59.1107635  78.4442215
  73.7453461  60.2928314  78.8611603  62.3543968  61.1902466  15.3403797
  62.3102036  60.8337593  14.4531384  62.0637016  60.4716759  15.9019709
  47.6739655  25.7348232  18.0739193  47.4979362  26.5055256  18.6136093
  48.6289291  25.6776581  18.0422325   9.5730944  62.2218094  11.4467478
  10.1857138  62.4242439  12.1538172   8.7087545  62.3821449  11.8254833
  80.9809189  60.3080826  83.1306610  81.1914978  59.6186981  82.5008774
  80.6042709  61.0102043  82.6001968  71.7386246  33.1563683  33.4807777
  71.6874161  33.7844353  32.7602577  71.3192062  32.3662834  33.1400681
  84.5386887  71.2920761  26.9418831  83.6835403  71.7083588  26.8339138
  84.5102844  70.9105530  27.8192997  30.1162586  15.3492794  17.5950718
  30.9685745  14.9854746  17.8347244  30.3203545  16.0485783  16.9741402
   3.5017970  36.3668175  59.1505508   4.4473062  36.2231445  59.1105232
   3.3741367  37.2312584  58.7598152  50.3871269  32.8115654  10.6626101
  51.0783730  32.4724503  10.0939159  50.7479591  33.6226158  11.0207005
  40.8075066  27.8005066  74.5197296  40.4760246  27.7593956  75.4167633
  41.3552780  27.0205879  74.4308319  16.0877972  59.6368408  35.6007004
  15.7066059  60.5097809  35.5063934  16.6465530  59.7018738  36.3751640
  55.8481102  63.5418015  44.1113548  56.4664421  63.1267509  43.5099945
  55.5923996  62.8421974  44.7125206  51.1423302  66.6532974  43.1711998
  51.9833565  66.6054001  42.7166557  50.6657639  65.8776016  42.8755455
  37.6191788  23.7656231  23.7651501  38.0095329  23.0355492  24.2456169
  37.6183014  24.4905434  24.3902264  84.7950974   8.8402176  24.2823792
  84.9581375   8.0173693  24.7434330  85.3171997   8.7742758  23.4828186
  60.2488365  48.8047295  65.0962524  59.7908058  49.1546783  65.8604355
  60.8482819  48.1504478  65.4551544  61.7844124   0.0838834  59.0169525
  61.5731430   0.8446715  59.5580635  62.6114731  -0.2409473  59.3728905
  79.0127258  27.7627964  83.2967453  79.4298325  27.0154457  82.8681183
  78.6091232  28.2545128  82.5815125   6.2571425  27.7904549  72.5723495
   6.9849024  27.7343407  71.9531174   5.6868567  28.4689350  72.2108688
  70.1359558  66.1951218   1.6565474  69.3319550  66.1139755   1.1434926
  69.8462830  66.5333252   2.5038593  24.4784756  59.7985039  75.3164597
  24.1426258  58.9676666  75.6528320  23.9693260  60.4662666  75.7759094
  18.5537262  45.2381744  48.1957321  18.8539143  45.1641502  49.1016235
  19.3176346  45.0006943  47.6701088   9.3456545  67.5546722  84.7342911
   9.8721714  67.8923950  84.0097504   9.0325346  68.3372269  85.1879349
  44.3398361  30.8537827  62.9697342  44.3095169  29.9308128  63.2216072
  45.1089668  31.2003403  63.4220276  74.1342392   8.0260582  75.5994873
  73.6146545   7.8469224  76.3831711  74.8469849   8.5858669  75.9074554
  11.3591986  41.6045380  12.9952164  11.1511202  42.5282440  13.1356039
  11.5212126  41.2593994  13.8732033  41.8344803  60.2548904  52.1644516
  42.3294411  59.7222328  52.7869644  42.1474915  61.1475029  52.3110619
  68.6092529  39.9317245  65.5927429  68.1383667  39.9212112  64.7594452
  67.9525070  39.6803513  66.2421494  70.1120071  33.1706161  20.1615963
  70.8048172  33.5571632  19.6260338  69.4102325  33.8214951  20.1516285
  72.8354645   4.4684410  52.2802620  72.8866348   5.3848577  52.0086098
  72.5481186   4.5047541  53.1925888  56.5676498  70.7462234  61.5424805
  56.0941963  70.5033264  62.3381386  56.5004845  69.9753418  60.9790421
  44.5803375  55.6299019  25.7457924  44.0510292  55.8243256  26.5192699
  45.3800697  56.1414757  25.8680725  36.0334167  15.2067118  86.4979095
  35.9092331  16.1507549  86.3999634  36.8909187  15.1198626  86.9143066
  81.4825897  29.0587006  24.5968876  81.2205582  28.1382122  24.6133060
  81.3489380  29.3618317  25.4949284  62.8319778  51.8369980  78.1263199
  63.7337494  51.5180588  78.0899658  62.3141823  51.0655556  78.3565216
  76.7592545  66.4983444  14.1513729  77.3443222  67.2287598  14.3524332
  77.1348343  65.7541351  14.6218271  75.1569748   5.9318933  44.7298737
  75.7304001   6.6701522  44.5239792  74.6494827   6.2264433  45.4861298
  70.9321365  22.4810104   7.7838449  70.7761841  23.2274570   8.3624029
  71.1054306  21.7501755   8.3772068  58.0101471  56.3650970  60.2101097
  57.9620323  57.2813492  60.4828720  57.1223907  56.0304527  60.3371124
  46.7510109  24.9437695  28.7585735  45.9750519  25.4639263  28.9672756
  46.4064674  24.0799694  28.5319195   3.1049831  68.7157211   7.3698187
   3.3667896  68.9613113   8.2571602   3.7609496  68.0749741   7.0952506
  46.1192856  14.1335087  20.6284962  45.8117638  13.5863209  21.3511639
  46.8772545  14.5969839  20.9847298  56.9729919  10.4265976   9.0998983
  56.7215233  10.2291965  10.0021334  57.2108765  11.3536453   9.1149292
  26.3755875  44.4959297  23.7105865  25.7438087  44.8074112  24.3587112
  26.1138058  43.5918961  23.5361481  33.7147789   5.0504770  77.5225525
  33.2283592   5.0486174  78.3469467  33.2592049   4.4117227  76.9742126
  11.3508921   9.2549906  87.5256500  11.1837311   9.7839565  88.3057022
  11.1380816   9.8338413  86.7936096  53.9498940  55.3463974   4.9162807
  53.6800995  55.6876488   4.0636439  53.1287575  55.1937599   5.3839002
  64.4167557  69.3950577   1.8033204  64.7115860  69.8237839   0.9998913
  63.7370720  69.9740906   2.1482470  38.7761002  65.0426712  23.3879929
  39.3506470  65.8051758  23.3193054  37.9017448  65.3839111  23.2001362
  36.0504646  33.0262222  11.6811132  36.4178047  32.2841682  11.2008553
  35.1318550  32.7932892  11.8157644   9.4161797  42.9066887  42.6576500
   8.6707087  43.5070992  42.6610413   9.5664959  42.7062607  43.5814819
  38.6731262  29.4085903  26.0783329  38.4018936  30.3233223  26.0013256
  37.9153175  28.9078331  25.7763405  16.2478561  10.9564800  20.5649624
  16.2896824  10.0242586  20.3517838  16.7964363  11.0488958  21.3439026
  38.2119522  40.5462074  75.5581665  37.8401451  40.0811043  76.3076096
  39.1256027  40.6981316  75.7998123  43.4737892  26.3854084  22.1213875
  43.3879166  26.2080936  21.1846809  42.7978210  27.0378933  22.3045940
  21.7765770  56.5326080   2.8634109  22.6605320  56.8673935   3.0143082
  21.5588970  56.8219414   1.9773328   2.4988627  60.9163361  76.2389221
   2.1117506  61.7038994  76.6211853   3.3923502  60.8979836  76.5818100
  46.5773010   6.5790486  88.2942429  46.7790680   7.4963784  88.4787064
  46.4226952   6.1900311  89.1550522  66.5719452  57.0369492  32.8722954
  66.3494492  56.6830482  32.0112038  65.7329636  57.3111763  33.2426186
  24.1267376  51.6544342  72.0335770  23.8114090  51.6618614  71.1298370
  23.3956833  52.0009193  72.5451813  15.4296341  28.1638927  70.8049927
  15.0602131  27.4719257  70.2564163  14.7195606  28.4015884  71.4012604
  70.3889236  17.1470871  50.3646049  69.5324326  17.1728477  50.7912064
  71.0056915  17.4042320  51.0499573  81.4338303   6.5555286  32.2331810
  81.0223541   6.1675448  33.0054398  82.0136032   7.2312040  32.5846901
  73.2635651   3.6091166   0.7963156  74.0748520   3.1015260   0.7765660
  72.9204407   3.4779713   1.6802274  10.3080235  53.8569756  30.5987778
  10.9422216  53.5031242  29.9752293  10.2964535  53.2220421  31.3149910
  23.5173855  70.6925049   5.0337310  23.1310024  71.5682220   5.0264406
  24.3554916  70.7967453   4.5832381  -0.1446877  46.3404922   1.2330484
  -0.0395916  45.9931145   0.3473201   0.3767247  45.7558174   1.7830625
  44.6012650  18.7320919   2.4777522  43.7938690  18.5357018   2.9529076
  44.5473785  18.2001247   1.6838137  33.5967064  31.0144939  44.5887299
  33.6687927  30.9671001  43.6354256  33.5058136  31.9488049  44.7758980
  47.1747093  61.0941696   8.0169277  47.7060623  60.6878395   7.3322449
  46.4689865  60.4673805   8.1760597  19.7399940  30.7751026  13.7148943
  19.3274479  31.6341801  13.6253157  20.3371677  30.8723526  14.4566212
  84.1418533  48.5303154  64.5089645  84.2769775  47.8536415  65.1723557
  83.4513245  48.1797066  63.9463997  23.4285126   4.4816527  31.4913120
  22.6726532   4.8987861  31.9047222  24.1715145   4.7360234  32.0385590
  12.5690727  38.5926094  59.3829346  11.8722258  39.1749496  59.0804176
  12.5722933  38.6970520  60.3344116  25.8430939  37.2632294  64.8470917
  25.9642181  36.3735390  65.1787720  24.9590931  37.5039139  65.1243134
   8.4172173  51.9516869  71.0670929   8.1438675  51.5540352  70.2404175
   7.9984164  52.8124046  71.0688705  13.3040714  30.8258991  69.4115829
  13.6020041  31.1327267  68.5552368  12.5495234  30.2698097  69.2175369
  47.8508530  31.4130573  44.8774872  47.3920021  31.0007782  44.1455612
  47.5138550  32.3087502  44.8974571  36.8678780  21.0656013   4.3106556
  36.5136566  20.1768494   4.2809668  36.7601166  21.3360481   5.2225094
  84.9918060  20.2156887  57.2680359  84.2528152  20.5289707  57.7895470
  85.6094894  20.9469147  57.2644348  65.8948975  13.7090673  62.5839844
  65.2947617  14.3401823  62.9811821  65.6547012  13.7005234  61.6574478
  40.8932533   4.8814678  88.0299683  40.1422119   4.8241334  88.6206360
  41.5951920   5.2451258  88.5696640  15.5194407   9.1069164  62.1600571
  16.3913994   8.7345333  62.0287056  15.4065714   9.7157516  61.4301186
  11.8840456  57.2454376  15.6783161  12.6647596  57.7988205  15.6563053
  12.2226782  56.3514671  15.6295605  73.0558929  54.8921661  87.3647766
  72.9114380  54.6917458  86.4400101  72.5960464  55.7198524  87.5051422
  57.3076897  15.3532839  13.8737535  57.0680008  14.4327230  13.7672262
  57.8888741  15.3629971  14.6342564  69.2158203   4.9800572  40.9036636
  69.6927643   4.4171681  41.5135117  68.5926208   4.3940310  40.4742126
  85.5634308  47.7511978  16.2724419  85.9169846  48.6365852  16.1868954
  85.0366592  47.6263428  15.4830408  23.2722015  37.7910309  13.4651175
  23.8655643  38.1154633  14.1425352  22.3982563  38.0150833  13.7848854
  30.2781639  68.8556747  76.1081161  29.7613926  68.0676041  76.2758026
  29.9052219  69.5155258  76.6927032  69.4722519   7.4258761  51.5447159
  68.8001022   8.0969124  51.6636581  68.9905548   6.5988708  51.5607834
  65.9720383  31.1010151  66.2256775  66.4755707  30.6815281  66.9233322
  65.3440399  31.6582584  66.6853867  86.1238632  65.0512543   2.7671702
  86.1754150  64.6731339   3.6450090  85.2761917  65.4954147   2.7471075
  85.3750992  21.6873360  24.7891674  85.4311752  20.9702911  24.1575546
  84.5043182  21.5978470  25.1764221  55.7479439  16.5135059  72.6216660
  55.2631683  16.9401360  73.3282166  55.1409645  15.8591166  72.2758636
  64.1427994   1.8512356  32.9560661  63.2322464   1.5565900  32.9386292
  64.2476349   2.3531866  32.1478043   4.7774405  69.2847824  20.5825920
   5.1872330  68.9231415  19.7967720   4.5932555  68.5212402  21.1296825
  17.5193233  40.7291641  50.5085030  17.2209568  40.7258301  49.5989990
  17.4370117  41.6420860  50.7842293  40.4797783  52.2766266  25.7934055
  41.2597122  52.7025833  25.4377403  39.8259964  52.3554306  25.0987167
   8.6060448   0.9175420  29.0142460   9.4899788   0.6629995  29.2790108
   8.0362968   0.2676873  29.4257164  70.7100830  18.6089096  67.4036865
  70.2296829  18.0402126  66.8019943  71.6191025  18.5565300  67.1084442
  37.5698929  56.8257141  63.3524971  37.7714844  55.9546700  63.6943626
  38.3600502  57.0859718  62.8790512  10.4387732   5.3348575  82.4754181
  10.9106073   5.2754359  81.6447067  10.6947594   6.1837559  82.8360748
  63.2312012  54.4713669  14.6827793  63.7136497  55.1886826  14.2717638
  63.8628120  53.7536392  14.7293463  32.1656799   5.1156735  20.0921497
  32.4856567   4.2621412  20.3842583  32.8548546   5.7295256  20.3460274
  79.2331924  11.6943064  24.3196049  79.6548462  11.0952950  23.7034683
  78.5469055  11.1697493  24.7320137  43.7615623  71.5229187  79.4076920
  43.5039253  70.8410873  78.7872467  43.8835487  71.0592117  80.2361374
  53.8367844   5.8204546  64.5171661  53.1557808   6.4467673  64.2718124
  54.6329803   6.1600485  64.1085358   6.9862285  52.2001991  35.0516891
   6.9518213  52.7973862  35.7989616   7.3168235  52.7368088  34.3312798
  46.4530296  66.0748062  38.5913277  47.0890427  65.9972153  39.3024521
  45.9056511  66.8197098  38.8397751  12.1316338  25.0583725   5.5750809
  12.5462570  25.3738003   4.7720718  11.9234524  24.1419754   5.3931227
  17.3502750  66.7176437  44.2280655  16.6107883  66.9999313  43.6898270
  17.1811371  67.1022644  45.0881157  63.2756500  41.6672897  58.3753624
  63.7945290  41.6957130  59.1792183  62.3871346  41.4684525  58.6707153
  75.5962143  15.0515060  19.1656952  76.4629517  14.8080511  18.8405437
  75.6075897  14.8002281  20.0892544  73.7721634  23.6442451  44.5536919
  74.4155502  23.3957367  45.2174149  74.1274567  24.4424648  44.1627388
  44.3831177  35.2110291  28.0234165  45.0016670  35.6060524  27.4089375
  44.8286591  35.2494812  28.8697281  68.9258957  60.4603462  41.3305893
  69.7647171  60.1539268  41.6751556  69.1383591  60.8231926  40.4706879
   8.5817900  24.0460567  69.3735352   9.1014309  23.9437695  70.1708679
   7.7578573  24.4308701  69.6723404   2.4852064   4.4116321  30.5460281
   1.9351038   3.6474676  30.7182846   3.3412242   4.0453639  30.3239632
  81.4064713  60.8369179  53.8284836  80.7851791  60.1089516  53.8112602
  81.6422882  60.9287491  54.7516251   3.7158251  54.4025917  41.7851944
   3.5484741  55.2371674  41.3473511   4.5819235  54.5080910  42.1788635
  72.0536041  20.7389774  63.2051620  71.5765457  21.4623928  62.7985725
  71.3994598  20.2930946  63.7432251   2.6450462  17.0148315  88.6421280
   3.3811905  17.6086788  88.7893372   2.9602482  16.1630917  88.9444809
  21.1793041  64.8886719  82.9137650  21.6407509  64.8494873  83.7514725
  20.4590664  65.5006180  83.0654526  65.1221008  19.5976887  24.0812836
  64.5913239  20.3938179  24.0552425  64.9825592  19.2454357  24.9603043
  64.7245789   2.8610582  70.0712967  64.0366516   3.5248566  70.1199188
  65.4389343   3.2904830  69.6006393  11.0004110   2.2422702  79.6089096
  11.4645996   1.6017199  79.0699768  10.1815691   2.4017055  79.1395416
  43.2603912  69.7838364   8.7694988  42.7811356  69.2325363   9.3880644
  44.1772842  69.5360641   8.8884335  44.7715263  69.3731003  81.0175476
  44.6771889  69.4373932  81.9679184  45.7159691  69.3122635  80.8741760
  12.1935987   6.0453572   4.0519180  11.5905266   5.4016943   3.6801212
  11.9090309   6.8814015   3.6827524  48.2807846  52.2758865  32.6089401
  48.5084991  52.7385750  33.4153519  48.8202209  52.6894875  31.9350128
  27.3031864  54.0782433  25.4222908  26.7395382  54.7478294  25.0347576
  27.6142406  54.4700127  26.2383766  82.6877975  20.0874405  35.8179703
  82.3053665  20.1588135  36.6925468  82.6369705  20.9742279  35.4612389
  65.0711670   6.1018434  71.9544525  64.5739441   6.2979174  72.7485199
  64.4123688   5.8057418  71.3263245   7.6369748  70.9603729  58.8976402
   7.0297899  71.6408844  59.1882706   8.4959946  71.2650833  59.1899948
  68.3714600  64.7061234  69.3562088  67.8497162  64.2906570  68.6696243
  68.2225266  64.1643448  70.1311417  43.7958908   5.1099339  75.1624603
  43.4893227   5.5369716  74.3625336  43.9651756   4.2048302  74.9010010
  29.5251255   0.9273286  47.8980675  28.7982330   0.8651895  48.5177460
  29.2716141   1.6315148  47.3013382  73.8299866  12.7961006  44.6772652
  74.5165482  12.7048798  44.0165520  73.8134918  13.7318888  44.8779106
  27.6237488  41.9200974  57.0243950  27.6921959  42.0851097  56.0840111
  27.7827377  40.9805412  57.1148911  72.8598938   9.6064997  36.8207703
  72.4293289   9.2200279  37.5833206  73.1033020   8.8568487  36.2776222
  22.2648869  13.6707640   3.9494352  22.9315910  13.6626701   3.2626512
  21.7870464  14.4883137   3.8097482  61.1238403  26.6577549  69.8101120
  62.0402756  26.9202404  69.7236557  61.1510696  25.8663921  70.3479156
  82.2696533  24.2091389  60.7753143  81.4121552  24.2681236  61.1965561
  82.5654907  23.3173561  60.9581642  11.5148745  10.7981606   0.6272203
  12.2108088  10.6617346   1.2701014  10.7108831  10.5652246   1.0915147
  24.9286518  62.8127823  74.2488480  25.3505573  63.0849495  73.4338913
  24.2668343  63.4848061  74.4119720  23.6851711  37.2191620  32.7689362
  23.1503620  36.6065216  33.2737923  24.3996773  37.4566841  33.3599510
  39.5635109  48.7101860  56.8241653  39.1794586  49.3919983  56.2729263
  38.8285408  48.1377602  57.0441093  51.4036674  40.4761086  66.9130859
  51.0198822  41.1390953  66.3391647  50.8811188  39.6900711  66.7539673
   5.9427748  57.4030724  43.3829269   5.0961370  57.2797127  43.8121338
   6.5097833  57.7559357  44.0686531  57.5857048  24.1965542  39.0652618
  58.2000084  23.8845024  38.4008141  56.8617973  23.5710449  39.0347900
  10.6225023  47.3210335  13.0692844  10.4753571  46.6735229  12.3798561
  10.0616741  47.0348854  13.7902708  29.5127335   6.9207592  24.2370453
  29.3069153   6.9256735  25.1718426  30.4682026   6.9663587  24.2019234
   6.5254493  12.4278040  77.0588150   6.9471931  13.0469856  76.4630127
   5.5880079  12.5612631  76.9187241   6.2021370  67.0679169  13.2633343
   7.1002035  66.7463379  13.1839962   6.2169533  67.9265289  12.8404970
  28.9522667   9.0467834  11.5923948  28.7559872   9.3652630  12.4734602
  29.9042339   8.9475956  11.5801134  66.3526611   3.8558829  24.1627502
  67.1729279   3.5533688  23.7730293  66.0224838   3.0976162  24.6446705
  44.9117775  67.1767578  70.5360794  44.7710342  66.4995651  69.8743896
  45.2029762  66.6970749  71.3115387  40.3402710  56.7899284   1.3915281
  40.1070518  57.5816612   0.9067613  40.5614662  57.1026306   2.2687528
  51.8474770  12.1319818  37.4640961  51.1003151  11.6419430  37.1208153
  52.5979614  11.8013878  36.9704170  55.2992706   7.5312667  71.7961960
  55.4461060   7.6162171  72.7382431  55.5849152   8.3694363  71.4327240
  81.3768845  50.8419266  17.3169441  82.0151596  50.2511368  17.7166920
  81.3343964  50.5648117  16.4017200  58.4851112  64.3143845  64.1638412
  59.1067848  64.8199387  64.6874542  58.1657562  63.6366119  64.7595520
   2.6952901  60.7333679  82.2278824   3.0205617  59.9942627  81.7139282
   3.0796893  60.6092796  83.0956802  54.7181625  20.6255856  53.2136917
  54.9562950  20.0648651  53.9520111  54.8204193  21.5169735  53.5471611
   9.5001431   1.2764125  68.5669937   9.5357199   1.5872554  69.4716110
   9.6657057   2.0572832  68.0387268  30.5867977  37.4328537  73.5939255
  31.4823399  37.7426224  73.7291260  30.1693096  37.5259705  74.4502411
  56.6511345  33.0309448  73.7085266  57.3909454  33.6113892  73.8873978
  55.9432831  33.3691559  74.2569656  84.8705139  18.6806984  12.8714447
  84.5520859  18.1152248  12.1678286  85.7002335  19.0272503  12.5432673
  26.5826836  58.2955894  88.4406357  25.6967907  58.6121330  88.6173401
  27.0782890  59.0833054  88.2167969  51.8323059  57.1020241  86.4705658
  52.2182045  57.9678230  86.6036224  50.8947182  57.2334518  86.6115875
  75.7311249  71.4402618  42.3546600  75.7507324  70.6865921  41.7648926
  75.4326706  72.1658249  41.8062782  54.7660904  25.6245651  48.1225967
  55.0775719  24.9846725  47.4824791  55.4435120  26.3007259  48.1344604
  69.8965530  22.2492599  61.8325081  69.8896027  23.0621872  61.3272057
  69.0041275  22.1688862  62.1691856  51.4232292  51.8903389  19.1393661
  51.2782593  52.5785141  19.7886982  50.7689514  51.2232819  19.3471794
  33.8342476  57.0099182  36.6892204  34.3215790  57.3000908  35.9181595
  33.3685799  57.7916222  36.9864197  69.4848557  31.0723991  76.0819702
  69.2823639  31.9814110  76.3031616  68.7030487  30.5835209  76.3388824
  86.7101593  58.9276314   0.8048466  85.7805786  59.0160370   1.0153393
  86.9494934  58.0620880   1.1361815  17.1907806  33.8662491  79.1406250
  16.6538773  34.0628700  79.9082870  18.0922737  33.9595604  79.4485779
  60.4670258  58.2636375  79.3973083  60.3720169  59.0642128  78.8812790
  60.2810898  57.5567970  78.7792130  65.0064850  70.0515671  56.9087372
  64.5086288  70.3283310  56.1394730  65.5974350  70.7830429  57.0874748
  64.0779648  34.1804657  59.6281395  63.6829262  33.6617966  60.3289642
  64.7415237  33.6043396  59.2486649  76.9701080  34.8035812   2.0313160
  77.3789825  34.4216499   1.2546668  77.2023544  34.2064247   2.7424397
  19.7523079  37.7819939  58.1661949  20.4872913  38.3951683  58.1593285
  19.8044434  37.3361397  57.3207779  18.6399364  70.3915024  65.7964478
  18.2272778  69.5399857  65.9408875  18.7097759  70.7751770  66.6706009
  -0.1825472  45.1060104  65.9671097  -0.0508666  44.4940147  65.2429886
   0.6503040  45.1016159  66.4388885  76.6866455  59.9740944  66.3280487
  76.3491745  59.2838287  66.8989105  75.9624939  60.1680450  65.7328796
  49.2338104  40.0282173  62.8616104  49.0847702  39.2749138  62.2901649
  49.6468697  40.6802597  62.2955208  14.7461252  40.1170082   8.2028503
  15.1604872  39.2685127   8.0460243  15.1305199  40.6964989   7.5450792
  24.1290188  42.0395889  56.6366615  24.1279011  41.2432632  56.1055298
  23.2187843  42.1438904  56.9138412  22.7131596  28.8139572   7.4003186
  23.1861515  29.6411572   7.3094754  23.3447952  28.1462765   7.1329799
   0.5333392  62.5568810  41.4263802  -0.3043554  62.9916267  41.5860596
   1.0201281  63.1698685  40.8754539  13.7420940  35.9865646   2.0395169
  14.4405766  35.3727493   2.2666430  14.0746336  36.4552155   1.2739999
  46.2189751  12.1936665   9.2655878  46.5649948  12.8281679   9.8932114
  46.9934731  11.8518162   8.8189077  61.5936546   0.2691450   5.5565605
  60.9980469   0.9824756   5.3271232  61.4313049   0.1113306   6.4865971
  67.8569260  59.7412415  58.2668037  67.7087173  59.0972176  57.5743446
  68.8031769  59.8854866  58.2611961  22.3699265  11.3647995  71.1295166
  22.9391136  10.7099829  71.5338364  22.1890068  11.0181828  70.2558136
  67.3674545  17.8554134  28.7215958  66.8234711  18.5098743  29.1597691
  68.1933823  17.8678074  29.2052422  31.0017319  26.1788139  80.0446167
  31.9432945  26.0703449  79.9107285  30.7985477  25.6110916  80.7880173
  75.0009918  26.0352554  44.0342522  75.4306335  26.6347980  44.6443291
  74.9483871  26.5254478  43.2137794   4.8302746  33.2407913  62.0374794
   5.4348373  32.7318420  61.4973831   4.1529675  33.5336838  61.4278069
  39.9279213  40.7833099  63.6845131  40.5610008  40.1310425  63.9844971
  39.7048416  40.5091553  62.7949562  77.6014099  52.2289810  16.8052979
  78.1419830  53.0011597  16.9718914  76.9361267  52.2494049  17.4932003
  33.7843781  39.2606277   6.7529931  34.3103294  39.8692703   7.2718019
  34.3493652  38.4971771   6.6339703  61.7588234  35.5841370  38.8454094
  62.5554543  35.5565338  38.3154602  61.2923622  34.7796097  38.6187286
  45.2457123  42.7859612  65.5631485  44.6136055  42.7569618  64.8449326
  46.0093002  42.3150749  65.2293320  78.4514923  12.3796778  57.8252716
  79.3089142  12.5140123  57.4215164  78.0351944  13.2411022  57.7956467
  81.1473541   1.6114178  66.7613602  80.3862534   2.1583097  66.9559555
  80.9879761   0.7992867  67.2422638  83.9037476  31.3229294  14.3070097
  83.9298630  31.5945854  13.3895388  83.2964249  30.5831966  14.3205748
  25.0944958   7.9635959  20.6717815  25.2136669   8.7485838  21.2064075
  25.4721069   8.1925964  19.8225460  36.2192726  22.7547550   2.1963370
  36.4317703  22.0719395   2.8326080  36.3848610  23.5750504   2.6610160
  80.9812851  66.0119476   7.2080956  81.5770645  65.5163651   6.6462350
  80.1167297  65.6453094   7.0227780  52.7359467   6.7401104  71.4475708
  53.6392899   6.9996948  71.6287308  52.4036255   6.4264207  72.2886429
   7.6941023  20.1554642  88.4813843   8.4596252  20.7278271  88.5324402
   7.0102477  20.7038555  88.0968781  20.2932053  45.0898666  23.7564220
  20.1928864  45.7850990  23.1061764  21.2399483  44.9887314  23.8548050
  78.6186829   2.7536485  64.7968445  77.9901505   2.2536848  65.3176270
  78.3632584   3.6671476  64.9253235  61.3771744  53.6074677  25.2739277
  60.4676743  53.4804726  25.5439568  61.4990082  52.9959564  24.5476742
  58.2181396  71.5448685  83.0027237  58.8050308  72.1031799  83.5126953
  57.6971397  71.0823364  83.6591187  16.1495075  14.0829878   3.1361849
  16.2519512  13.1949453   3.4784091  17.0232964  14.4679298   3.2035952
  73.4723587  71.0784912   3.4696910  73.6132584  71.8270264   4.0494061
  74.2745132  71.0234604   2.9503136  48.5541954  18.4995499  11.3093719
  48.8866158  18.8648891  10.4894590  48.1944122  19.2523212  11.7785435
  70.3689880  53.5441895  48.8337173  69.6415939  53.7986412  49.4015045
  70.7346191  52.7628517  49.2485123  43.9479752  67.5684814  53.0674515
  44.6948013  68.0833435  53.3730583  44.1970482  67.2838364  52.1881485
  52.4003334   1.2698491  47.4641647  52.4852028   0.3341671  47.6472702
  51.8794556   1.6099863  48.1916428   1.2182401   8.1572609  56.5860100
   0.8544558   7.2904148  56.4058113   2.1520166   8.0006409  56.7265930
   4.9206309  21.0280361   4.5540986   5.1234336  21.9448795   4.7398367
   4.3259249  20.7670765   5.2572746  68.2088394  31.3806019  70.3117294
  67.9646530  31.1892338  71.2172623  67.5003891  31.9350071  69.9846725
   0.7757736  37.4580345   4.7611513   1.0829159  38.1535835   5.3426223
   0.6353574  37.8933601   3.9203141  11.9564819  29.0595284  62.6633949
  12.4656429  28.2500057  62.6226540  11.2459497  28.8650742  63.2745934
   4.7218432  27.0458832   8.8662615   4.8442998  27.8516731   9.3681946
   5.5937152  26.6526775   8.8280392   2.4717298  34.7670708  37.6937256
   3.0640788  34.6418648  36.9523201   2.8166997  35.5352478  38.1488380
  49.4268608  20.0957623   4.4927959  50.1850243  20.5934944   4.7988734
  49.2710228  20.4183712   3.6051762   5.1969070  56.8535309  69.7408295
   6.0076756  57.2675781  70.0365448   4.5526776  57.5614853  69.7406006
  62.7098694  36.7730064  34.7014198  63.2940216  36.6851997  33.9482384
  62.0025063  37.3384094  34.3912811   3.9940684  38.5801544   0.3530257
   3.3477743  37.9477234   0.0390722   4.2230058  38.2732086   1.2302963
  10.8161402  48.8037529  70.1260757  10.0392265  49.0446358  70.6306686
  11.2494383  49.6369820  69.9411011  19.0622253  58.9898300  71.3456573
  19.3083477  59.6461983  70.6938629  19.4093761  59.3294678  72.1705017
  68.2599792  53.9542694  32.4999008  67.6682053  54.0148773  33.2498131
  69.1173325  54.1944237  32.8513298  41.2253418  13.9478951  68.5137558
  40.6724663  13.5407667  69.1806946  41.0837135  14.8878365  68.6263809
  61.0211678   6.4417977  41.1929703  61.6568871   7.1573462  41.1837273
  60.1789665   6.8715649  41.3420677  28.9570217  34.8326492  71.5064774
  28.6659489  34.3584137  72.2853241  29.8585987  35.0866127  71.7036972
  51.9653320  48.0986519  24.5410633  52.8270836  47.8276024  24.2246037
  51.4337502  48.1790428  23.7491093  77.8697205  46.9888268  86.3082733
  78.4105148  47.7720871  86.4096756  76.9838562  47.3252678  86.1730499
  74.6015854  21.5438080  63.5832939  73.6985397  21.2312603  63.5280190
  74.6786957  21.8978500  64.4692612  61.4708633  23.0049515  57.2654305
  60.6214447  23.1591415  57.6788864  61.7923050  22.1999664  57.6715202
  56.9178886  10.6060476  68.3821945  56.5984802  11.5071363  68.4296036
  56.2308693  10.1327848  67.9128799  73.5413589   2.0228252  11.2629070
  72.7615128   2.5458617  11.0771561  73.2377167   1.1161305  11.2188530
  37.1939087  38.7445297  13.3097239  36.2677917  38.5408363  13.1791449
  37.2893524  38.8278732  14.2585001  66.5964203  18.8184376  17.9031086
  67.3241043  18.4399891  17.4096680  66.2188492  19.4694519  17.3116226
  53.1438980  47.3868980   7.2767758  53.6386681  46.6060791   7.0282578
  52.4354362  47.0558929   7.8288136  71.9124908  64.1125641  15.8131809
  72.6578979  63.5905075  15.5164413  71.9031296  64.8705597  15.2287254
  61.7818985  36.2771835  48.3977547  61.0694847  35.9138680  47.8717308
  61.5042686  36.1410332  49.3036346   7.6554313  67.3375626   7.6869168
   7.5845418  67.2925186   8.6404247   8.5146341  67.7287369   7.5288363
  59.7918320   9.9720287  69.0510635  60.2124825  10.4025183  68.3067703
  58.8617554   9.9578772  68.8252487  56.6611481  25.8537941  33.6126823
  56.7595940  25.4921684  32.7319069  57.3069687  26.5589943  33.6556206
  47.6310921  64.0968246  42.0716438  47.7471161  64.8180466  41.4530869
  48.3516884  63.4971733  41.8782654  35.0098495  63.0240974  41.5189629
  34.1450615  62.8635597  41.8965874  35.6168976  62.5871048  42.1162567
  80.8806305  30.8240013  48.9655685  81.2706833  31.6980267  48.9786377
  80.1578979  30.8748798  49.5911026  15.1650972  39.8087387  42.8406677
  14.4684620  39.6066666  43.4652481  15.0881186  40.7512894  42.6926918
  83.7593460   9.4906263  26.5820904  84.2378387  10.1999063  27.0112724
  84.1848068   9.3960400  25.7298775  16.7248306  48.6793671  79.8624802
  17.3140717  49.2830696  79.4101944  17.0697803  47.8100967  79.6584930
  12.3176603  53.9828644  36.4354973  12.3131571  53.7866325  35.4986382
  13.2032747  54.3018837  36.6091309  80.1740417  38.8969307  19.8694477
  80.3440170  37.9571114  19.8055954  80.0157166  39.0489349  20.8011456
  51.4584808  59.3572540  55.6789665  51.1633072  60.0473976  55.0849953
  51.3417282  58.5474930  55.1820908  29.5884533  44.8274002  50.9841499
  29.8548546  44.1247826  51.5771027  28.6369820  44.8725319  51.0784645
   3.6912870   0.9959344  28.8340549   4.2651520   0.3127028  29.1806164
   3.8831692   1.0171016  27.8965225  82.6685715   3.7411633  19.3555260
  82.6287994   4.2711639  18.5594425  83.5267029   3.3186326  19.3193398
  22.5457230  39.0094833   6.1828785  21.9405766  39.7502670   6.2184796
  23.4105930  39.4005699   6.3064923   5.4519014  51.4698296  77.0662689
   4.9886870  52.3068047  77.1000061   6.0388412  51.4902840  77.8221207
  77.0250854  47.1588211   8.8787203  77.4465485  47.9974289   9.0667086
  76.3958206  47.0421295   9.5905075  38.9427757  62.0713768  42.0191879
  38.8175774  62.9659004  41.7023506  38.9207573  62.1498070  42.9729118
  57.6281738   7.7206087  50.3784714  58.1972961   6.9697585  50.2094765
  58.1393433   8.4777279  50.0926247  68.4707108  68.8849030   6.7688751
  67.9560242  69.6752701   6.6056066  68.5180130  68.4497910   5.9176011
  36.8900032  65.3824615  37.0490189  37.5530090  64.8633881  37.5042267
  36.9845467  66.2631454  37.4119148  45.8023911  44.5323105  55.7156143
  46.1865501  45.3550720  55.4127655  46.2394753  44.3562660  56.5487976
  77.0959930  52.6638031   3.7327290  77.4930725  53.1912918   3.0396821
  76.4624481  53.2499161   4.1466441  35.9937439  62.3435211   1.1131748
  35.9213753  61.6618805   0.4450743  35.1178360  62.7266655   1.1602913
  41.4569740  12.2321587  79.5300140  42.0939674  12.8302965  79.9207840
  40.6788292  12.7709446  79.3870773  17.5760498   2.4278769  19.1512871
  16.9372902   1.7870153  19.4635563  18.2999821   2.3677862  19.7746201
   2.3504999  20.7832508  63.3238106   3.1137788  20.3160553  62.9841537
   1.8114455  20.1015873  63.7250443  71.7876205  57.4989471  35.7722359
  72.3787994  57.1864090  35.0873528  70.9214478  57.1995544  35.4959412
  87.1004105  33.1445045  81.5159988  86.8082581  32.2508011  81.6953735
  86.4010696  33.5226593  80.9829330  77.2664337  58.4618530  47.0553780
  77.9052582  58.2914238  46.3632202  77.2559052  57.6579361  47.5748367
  39.8074608  29.0115604  20.2545300  39.2849503  29.8106956  20.1866951
  39.2513962  28.3291798  19.8785267  85.1250381  47.9904327  87.6663132
  85.6022644  48.7520180  87.9956741  84.3277054  48.3551178  87.2822647
  54.0543060  34.5184326  87.8740158  53.3075218  33.9353104  88.0100784
  54.4870377  34.5564384  88.7269745   1.0484911  22.1036034  87.9126282
   0.4459780  22.7005253  87.4688950   1.7693162  22.6626701  88.2026062
  29.9631176  40.3084755  59.7516022  29.8158207  40.8062363  58.9473839
  29.2201557  40.5330849  60.3117714  27.6171036  12.7021179  86.5662079
  27.0879555  12.9191017  85.7986450  28.5073032  12.6127415  86.2259369
  48.8031654  24.2312088  80.0918655  48.9500961  23.3397884  79.7756195
  47.8971863  24.4245453  79.8509216  23.5844269  70.6759338  78.4366608
  23.1918430  70.0634689  79.0587540  24.0217400  71.3271332  78.9852295
  43.9836845   8.8334370  71.4428482  43.2246132   8.3391628  71.7522659
  44.4186554   9.1297674  72.2423630  82.7962418  16.1800880  10.7431297
  82.4340057  15.8752861  11.5750608  82.1438828  15.9259481  10.0903902
  76.7833786  59.2410965  77.4343262  76.7149506  58.5845795  78.1275330
  76.6556091  60.0770683  77.8827209   5.5848885  52.6507416  63.3055801
   4.8794684  53.1736069  63.6866646   6.3683906  52.9198265  63.7851105
  10.6641035  66.6500244  17.0953197  10.3026915  67.5298080  16.9876499
  11.4778242  66.6620331  16.5913887  71.2088242  59.8598022  37.0222626
  70.3639984  59.7768593  37.4645615  71.3530197  59.0038300  36.6188393
  14.9576511  37.5922165  72.9658203  15.0458307  37.8327255  72.0435333
  14.1589851  38.0345612  73.2533875  11.4114895  10.9877138  17.5895081
  11.6878939  10.1608315  17.9846001  10.4639797  11.0121031  17.7231522
  50.6190414  54.8733139  64.6235504  51.1456680  55.1758270  65.3634033
  51.2508812  54.4679260  64.0296860  54.6871986   9.3070002  83.3510590
  53.9372101   9.2499399  83.9430847  54.6530800   8.4967909  82.8425064
  44.9666100  56.9954643  41.9889870  45.7331200  56.5538445  41.6233864
  45.3046913  57.8277168  42.3195801  76.0608597  44.9790726  62.4013405
  75.1675644  44.6399651  62.4584465  76.6069412  44.2757912  62.7526588
  48.1797562  56.7621956  22.6187363  47.6796150  57.5594940  22.7930908
  47.6310158  56.2626419  22.0141201  66.3846054  26.4370670  21.3393593
  66.8856888  26.2970219  22.1428146  65.5124283  26.0967503  21.5386391
  80.3608246  59.6157036  41.5299492  79.8681946  60.0667419  40.8443031
  79.7016296  59.3794670  42.1825485   1.4954678   5.8031468   7.7979136
   0.7720404   5.6629519   8.4088392   1.5994298   4.9621563   7.3527627
  54.4153404  26.4394226  74.8782883  55.1187744  26.1629848  74.2909241
  53.7911606  26.8896847  74.3091736  47.6692314  40.1951332  81.1857224
  47.4592133  40.4740753  80.2944794  47.8079948  39.2507133  81.1146774
  49.7913895  53.6184959  79.6480637  50.6466980  53.2048950  79.7647324
  49.8160515  53.9730873  78.7593079  79.0001602  61.8984795  12.7213984
  78.2140503  61.6913071  12.2160854  79.7132263  61.4838181  12.2357864
   7.8149734  45.0032539  22.1644115   8.7185450  45.3046722  22.0698853
   7.3526602  45.7486954  22.5475731   4.1558232  56.0573082  39.4508018
   5.0705462  56.2532120  39.6536217   3.6579931  56.7289963  39.9168816
  36.4986954  68.6284409  30.2146854  35.7403145  69.2000809  30.3343315
  36.4870491  68.0520020  30.9787636   5.0708699  45.3262520  19.0010223
   4.4989352  45.0686684  19.7240524   5.4323339  44.5016327  18.6760921
  56.1488876   1.9654142  18.8667316  55.3905525   1.6010747  18.4102039
  55.9259224   2.8860216  19.0045738   5.3842130  21.7491570  58.1288986
   4.7161646  22.3391991  58.4778862   6.2047973  22.2323551  58.2258148
  40.1643333  27.8598804   5.7075362  39.6720657  27.4326363   6.4085112
  40.9828873  28.1330090   6.1217871  19.6398792  47.8745804  53.5679550
  20.3057747  47.1940308  53.6662521  19.7937260  48.2359047  52.6950264
  20.5964260  19.3257160  46.1026001  20.9695702  19.1599922  46.9683533
  20.2107506  18.4887505  45.8438034  71.5806961  11.8601847  35.5743408
  72.0090103  11.2622137  36.1868820  70.9028931  12.2913008  36.0948753
  62.6302261  26.4856434  49.5297356  62.9630203  25.6606369  49.8830681
  62.0747871  26.8374252  50.2254143  59.0740128  25.6756306  49.8784790
  59.1342316  26.5091858  49.4117966  59.3017807  25.8905525  50.7830009
  79.2949829   6.2204976  38.2401810  78.7234650   5.4529934  38.2170410
  79.8634262   6.0731320  38.9960861  19.8615341  51.2369270  58.0294113
  20.6174641  51.8120804  57.9111023  20.0618134  50.4659195  57.4986877
  51.4703865  48.2974586  67.4964676  51.3457832  49.1458626  67.0711288
  50.9838638  47.6812592  66.9489059  82.6098328  57.2331314  65.2288742
  82.6582718  56.2782974  65.2755966  81.7668381  57.4499588  65.6270905
  48.4076233  58.0272064  61.9059029  48.5938454  58.8013229  61.3745880
  48.2501183  57.3311234  61.2680206  13.1216068  24.0267143  82.8008423
  12.5186691  23.9732246  82.0593338  13.8178997  24.6114407  82.5016785
  14.9735661  53.2043686  82.4339142  14.0940351  53.4959145  82.6740341
  15.4240656  54.0030937  82.1594772  26.1297264  18.3770924  68.8064728
  26.4570847  17.5768299  69.2171402  25.2128925  18.1866798  68.6079941
  68.6746750   7.7230449  12.1914968  69.4283676   7.9542875  12.7343674
  67.9170380   8.0255566  12.6921930  46.5114937  49.8596230  87.1736069
  46.8403091  50.2712212  86.3744202  45.8685608  49.2203445  86.8667068
  58.0012894  67.4866180  48.2664871  58.2468185  68.1565781  47.6284370
  58.0994186  67.9172287  49.1157074  66.8780975  58.0555840  82.7823029
  67.3798904  58.1765099  83.5884171  66.0883484  58.5809822  82.9106979
  53.1752205  53.6675034  56.1090317  53.4209785  53.2961998  55.2617035
  52.2850266  53.3499756  56.2605515  67.2944794  34.2846985  57.1725159
  67.7180023  34.4389915  56.3280907  67.4156799  35.1028786  57.6543045
  59.3648071   4.2378850  13.4855375  60.2544250   4.1841788  13.8347158
  58.8302727   3.7561054  14.1167231  63.0522652  13.8101883   1.2028803
  62.9015045  13.2455769   0.4447801  62.2255440  13.7897825   1.6849034
  47.9729118  32.2683372  12.8394070  47.4234886  31.5168686  13.0622597
  48.8537216  32.0098991  13.1107330  12.2148485  55.6396904  48.6996002
  11.3286476  55.9568253  48.5255127  12.0863285  54.8082466  49.1561317
  47.8968277   8.9111509  34.3270645  47.3572731   9.4765730  34.8797035
  47.3592682   8.1320934  34.1844635  82.0461731  65.6088715  52.5548553
  81.7206421  64.9109573  53.1233444  82.8923645  65.2883759  52.2426605
  54.3027954  12.1572447   8.3031483  53.3957100  12.2262526   8.6009102
  54.8092690  12.6238918   8.9679480  59.1961517  67.2013626  43.2335625
  58.5522690  66.8118286  43.8250923  59.1511726  68.1400909  43.4151993
  35.9041367  54.3826599  68.1754990  35.5802574  54.6648674  69.0308914
  36.7570953  54.8085403  68.0899353  53.9162483  58.5602951  78.4963226
  54.5383110  58.6274681  79.2207260  53.5831871  59.4505348  78.3832932
   9.0224228  57.7649345  49.4710045   8.1413555  58.1090164  49.3241615
   8.8847361  56.9573250  49.9660187   5.0433097  70.1979904  62.5888443
   5.8749838  70.4253540  63.0046005   4.8444829  69.3203506  62.9151001
  28.9928741  65.1966934  42.5787773  29.3108711  64.6110153  41.8916855
  29.7851467  65.4916306  43.0277176   3.0379469  17.7546749  15.8228903
   2.5746155  18.1899796  15.1073027   3.7592318  18.3466339  16.0363503
  35.8555984  14.3956461  68.9471512  35.8574066  13.4524002  68.7843170
  36.6450233  14.5506783  69.4658051  81.4981613  42.9007607  40.4016418
  81.9983521  43.7022972  40.5551949  81.0846558  42.7114220  41.2438965
  25.1478481  70.0700607  12.9380121  25.0521851  69.1179733  12.9627142
  25.4697762  70.3011169  13.8093367  67.3760071   1.5713991  21.0143909
  67.6467209   2.1891043  21.6936436  67.4947510   2.0502229  20.1941090
  85.6680603  23.5223713  41.7520828  85.7325897  23.9255657  42.6178207
  86.1447983  24.1182289  41.1742325  13.0599203  36.1759911  16.8667221
  12.2776918  35.6277809  16.9284801  13.7855406  35.5795975  17.0511703
  36.5526619  35.4109268  29.1865253  35.8565903  36.0003052  28.8960896
  36.3811836  35.2789001  30.1189404  32.0536575   0.5040923  60.5524979
  32.8609085   0.8561668  60.9274979  32.2916145  -0.3731988  60.2525520
  52.7183342  60.9457664  62.5263176  53.2102585  60.1260071  62.5736542
  52.3747025  60.9676552  61.6331940  25.2563286  19.7571430  88.1754074
  26.0882244  19.6255016  87.7206039  24.6230488  19.9154701  87.4753189
  76.1356583  20.2570972  80.5605469  76.5597229  19.4509773  80.8547745
  76.1171875  20.8154736  81.3377914  82.5628586   7.7654710  48.2829361
  82.5831375   6.9282756  47.8193398  82.4321442   7.5278201  49.2009087
  44.7134171  16.4567261  70.9087753  44.2177734  17.2724609  70.9805069
  45.0895271  16.4815750  70.0289154  79.0571823  33.7665100  36.0817108
  78.8523483  34.0627136  35.1948433  79.7440567  33.1105957  35.9625015
  50.5513992   0.2204921  63.5505829  50.9436150   0.5614616  62.7467575
  49.6651802   0.5821688  63.5567970  36.8245811  41.1826096  20.4439850
  35.9131317  41.2284737  20.7327499  37.2940216  41.7673569  21.0389061
  81.5082245  42.8045273  62.4992905  81.8833923  43.6534119  62.2650414
  81.5645218  42.2877769  61.6955299  38.2739220  49.5238380  25.7957973
  37.8582840  48.7067413  26.0711689  39.2098694  49.3728065  25.9277878
  62.8886948  54.9635620  38.6084671  63.4322777  54.6052055  39.3101311
  62.2046204  55.4553146  39.0628395  29.7282047  45.0706100  37.6643333
  30.2163105  44.7418060  38.4192352  29.5989017  46.0008049  37.8493958
  67.6183929  23.3039932   8.8756733  67.5552292  22.4532280   9.3097696
  67.0952148  23.8908844   9.4216347  53.9796906  18.7068405  34.8261223
  53.9639206  19.3046265  35.5735397  54.1617088  17.8488445  35.2094536
   8.5572815  58.0467720  87.5418167   8.1933613  57.4528847  86.8852386
   8.2914371  58.9186783  87.2496872  80.6751328  26.8352814  62.6111412
  81.2606430  27.4394855  62.1546898  80.0414581  26.5671902  61.9456940
  76.2369080  44.2103195  52.1289024  76.3471832  43.8754349  51.2390022
  75.4144287  44.6991653  52.1006432  72.3698196   9.6514225   2.7037354
  72.1476059   9.8571367   3.6117756  71.7241135   8.9950962   2.4419358
  64.8942947  15.2190361  33.4268188  64.2370453  15.8769140  33.6536293
  65.5803680  15.7113638  32.9760895  75.1613693  19.1380291  58.1794510
  75.9645462  19.5608883  57.8755836  74.5183182  19.8459320  58.2193375
  86.8454132  41.1509018  29.8194695  86.8323975  41.5895004  28.9687653
  86.0827713  40.5726967  29.8025246  39.0430756  33.0341568  78.2744675
  38.3384361  33.1139221  77.6315384  38.5984039  32.8014069  79.0895309
  27.8428516  47.9908066  48.7729950  28.7509232  48.2931938  48.7587814
  27.3812828  48.5912209  48.1875954  67.6710663  32.8258057  89.1375046
  68.1092911  32.8989105  88.2896576  68.1779480  33.3927383  89.7187881
  24.6046753  42.0169716  12.3233204  24.3830795  41.1096420  12.1138487
  25.4017334  42.1905975  11.8225346  62.9876785  58.9431190  29.9277096
  63.6564827  58.4640961  29.4383545  63.3790436  59.8012428  30.0910778
  43.6400146   8.2486668  12.8211603  42.6847687   8.2364531  12.8810663
  43.8408737   7.6766973  12.0803909  20.3347893  64.5715103  58.9768562
  20.0741100  64.0691223  59.7487907  19.7872238  65.3560944  59.0055733
   9.6478081  35.2020454  10.0608797   9.2555265  36.0242271   9.7669992
   9.1965055  35.0009117  10.8806982  75.3605270   5.2987056  25.3511887
  74.6567230   4.8929586  25.8574085  75.5847244   6.0886164  25.8431339
  48.5018578  15.2158928  57.5457649  47.6355972  15.5430422  57.7882500
  49.0105782  16.0038548  57.3545837  48.1709251  64.5376511  47.3595924
  48.9866257  64.1615906  47.0287781  48.1075592  65.3896103  46.9278755
  -0.0460636   4.4930639  64.4905090   0.6588945   3.9584346  64.8557968
   0.2535577   4.7145267  63.6087990  33.6522598  24.9012775  17.1091461
  33.2185211  25.3341312  17.8444939  34.5852852  24.9551048  17.3160286
  80.6980972  50.3333511   8.2933559  81.5021667  50.3012047   7.7750230
  80.6974030  51.2088623   8.6802864  17.3866634  65.8451767  41.2273674
  17.2552814  66.4304810  40.4814491  17.2045879  64.9715118  40.8812523
  76.5919113  55.7507706  33.1243477  77.1664734  56.4952621  32.9458961
  75.7998962  55.9328346  32.6185837  27.8487778   9.5827360  83.6676865
  27.4722900   9.8869324  84.4934921  27.2749271   9.9476032  82.9940414
   1.1695178  20.1591244  86.2141495   1.2763250  20.9859314  86.6844864
   0.2950320  19.8559456  86.4582596  40.4494286  67.4162827  23.1777306
  40.8309784  66.5394821  23.2210808  40.3977509  67.7003860  24.0903339
  45.4456215  51.2842026  52.7862282  46.3030624  51.6309433  53.0327950
  45.0223923  51.0771103  53.6194305  33.8097763  36.0215454  30.3395615
  33.9620590  35.1019936  30.5574322  33.1751785  35.9960938  29.6234112
  65.4051895  66.4653854  64.3280029  64.5281754  66.3391342  63.9658852
  65.9187317  65.7413864  63.9697800  41.7600479  25.9118862   7.7543969
  41.8717384  26.4206429   8.5574694  42.6275444  25.9094181   7.3498302
  72.8275070   7.2595096  77.8676376  72.6753769   8.0514879  78.3832474
  72.4184265   6.5598707  78.3769379  63.5697250  59.9488373  76.9946594
  63.9747314  60.1211662  76.1446533  64.1431656  59.3025246  77.4065704
  20.3572292  44.1900368  16.3668041  19.9170628  43.8647690  15.5815125
  19.9455318  45.0368996  16.5387383  74.8537369  59.6286507  47.2603836
  75.1141434  60.5495300  47.2404633  75.6802826  59.1458969  47.2574120
  65.7459564  21.6971760  71.7859650  66.1321793  21.8694725  70.9272614
  65.4486084  20.7886543  71.7369232  67.2290497  23.5658073   0.2053352
  67.7185669  23.8009396   0.9935725  66.5940628  24.2739105   0.0976018
   0.2098415  46.9500656   4.8829732   0.9472519  47.0173340   5.4895477
   0.6144217  46.7832718   4.0316644  73.5542374  36.1640816  70.5664673
  74.2504807  35.6429672  70.9663773  73.3396606  36.8236008  71.2261810
  61.9827919  66.3261032  32.9297142  61.7152214  66.1942368  33.8392448
  61.5066223  65.6552963  32.4403152  40.1857491  61.8031387  78.4081726
  40.2288857  62.1778564  77.5284271  39.3642921  61.3118973  78.4192581
  58.1018829   3.5660975  61.1812210  57.8531151   3.2889233  62.0629959
  58.2475281   2.7484684  60.7052994  56.6607704  27.3429565  19.0592899
  57.5746231  27.5684299  19.2332687  56.2264977  28.1861057  18.9299126
  75.5391312  13.4085083   7.9038677  76.1747589  12.9196787   8.4266062
  74.7917328  13.5314960   8.4891052  83.2971802  68.5992813   1.3986375
  83.8132782  69.4035339   1.3434248  83.3286896  68.2333221   0.5147191
  70.8528442  63.2552338  59.0604477  70.1647644  62.8092804  58.5665855
  70.4678879  64.0983124  59.2997208  15.1083431  56.3759880  67.6728516
  15.2415247  57.2980614  67.8925705  14.1932774  56.3253517  67.3965912
  49.2008171  26.1161613  13.7990999  49.8477745  25.4846249  13.4847126
  49.7196274  26.8670921  14.0874920  62.0346603  32.9235535  27.3005199
  61.3282051  33.4665489  27.6502476  62.1757774  33.2559013  26.4140301
  24.8080597  39.5554962  19.8593311  24.2476006  39.2997551  19.1267223
  24.7823658  38.8056259  20.4536934  77.4698944  53.8719635  26.5202599
  77.3415146  52.9236870  26.4974174  77.5641937  54.0785637  27.4501286
  18.6491699  14.1979609  64.4594955  18.7123432  13.3018160  64.7898941
  19.5511703  14.5183086  64.4620209  68.9810104  35.2698975  73.8573227
  69.4119339  34.4561844  73.5957794  68.9171600  35.7778015  73.0485001
  29.8657970  19.0338173  86.1562500  29.4214725  19.7766113  85.7475204
  29.1864147  18.6052246  86.6768112  60.8808365  33.8253174  16.0987282
  61.6370125  34.3199501  16.4145870  60.2394180  33.8906136  16.8062229
  24.1626987  39.8391609  71.6492004  24.7507057  40.5763550  71.4847946
  23.5609093  39.8421745  70.9048386  42.3455238  14.7555437   7.6656399
  42.0844955  14.0554352   7.0673566  41.5198860  15.1460333   7.9521141
  82.3299637  47.4075813  13.0594482  81.4799194  47.1038589  13.3778849
  82.9396439  46.7108154  13.3024254  83.7784729  50.9411621  57.2343903
  84.6864624  51.2074318  57.0898285  83.2810211  51.4143829  56.5674286
  67.5150146  18.7177963  42.3169136  67.0618744  19.5608425  42.3300323
  68.0653152  18.7538128  41.5345421  72.7332535  40.6767654  51.8997078
  73.6049271  40.4060287  51.6113968  72.1421814  40.3348999  51.2288933
  81.4499588  40.3851547  39.2300377  81.2220917  41.0893288  39.8370323
  82.1950760  40.7267761  38.7357483  52.0280685  11.9197855  63.2963791
  51.5987320  12.7457409  63.0734482  52.1631622  11.4851570  62.4543114
   6.5130234  45.3686256  74.3440475   6.0946779  45.4504051  73.4869995
   7.4366736  45.2141571  74.1459503  82.5921936  56.1896019  48.1351204
  82.7339478  55.2625694  47.9434128  81.8105392  56.2031631  48.6874466
   4.3508649  41.9392166  68.7320175   3.7973328  42.5785408  69.1804581
   4.7226009  41.4083557  69.4364548  47.6692772  21.6508713  18.9108143
  48.4483490  22.1542625  18.6744366  47.9881973  20.7556648  19.0253868
  69.0425186   3.9662051  57.1730728  68.2917938   3.7550032  56.6180573
  68.9814987   3.3501291  57.9031143  59.0645523  36.8116608  51.2479248
  58.3754654  36.2298813  50.9271126  58.7961197  37.6835251  50.9580498
  65.9759827   8.5397930  28.3492565  65.0442429   8.3519993  28.4624939
  66.3470230   8.4489059  29.2269230  78.2377548  70.2430267  45.5932922
  78.2271652  70.2502213  46.5504074  77.4972305  69.6875687  45.3497429
  83.5022354  20.2719326  21.1342468  83.9686890  19.8281670  20.4259224
  83.5245667  19.6504955  21.8619480  82.0465698  65.7971115  30.3311024
  82.1426239  66.6367645  29.8816814  82.8942947  65.6519775  30.7512608
  60.6779861  34.1522293  56.4355888  61.0897675  34.7120438  57.0938263
  60.2136459  33.4869652  56.9435692  73.5530319  46.6929474  18.1690006
  72.8219299  46.7598114  18.7832088  73.6604538  47.5804863  17.8269882
  79.8522186  61.1599464  30.1324520  80.5371170  60.6069717  29.7564659
  80.3282394  61.8425789  30.6053677  62.8759003   6.7613697  50.6778679
  63.5360909   7.4071045  50.4260521  62.0625801   7.2622085  50.7403069
  18.8862228  44.6225700  11.1671257  19.7894897  44.5915794  11.4823742
  18.4493065  45.2411118  11.7525682  57.0934868  24.6057873  27.7591934
  57.8943825  24.5849247  27.2353992  56.5537491  25.2789803  27.3447971
  74.4300995  36.8915291   0.9991989  74.6925201  37.0588188   0.0940018
  74.7062378  35.9903259   1.1659714  19.5235634   3.1198964  84.1215668
  20.3723888   2.7179170  84.3063354  19.1232491   3.2406931  84.9826050
  54.2301559  54.6436806  20.7063866  54.6342583  55.5104713  20.7465591
  54.9629936  54.0440254  20.5664043  49.3667564   0.4924443  51.5713310
  48.5229950   0.5402617  51.1218758  49.4706764   1.3527732  51.9778633
  58.1707954  58.5488396  35.9599800  58.1056213  58.1982613  35.0716782
  57.8433342  59.4454231  35.8882484  47.2023277  31.7567883  63.1663589
  47.8504829  31.1116581  63.4490814  47.3082619  31.8021584  62.2161217
  28.8903866  39.2982407  68.7502975  28.9855309  38.5860252  69.3826981
  28.8869019  38.8627892  67.8978882  31.2819977  60.9036484  41.7965736
  31.2753506  60.1993294  41.1484070  30.8929291  60.5128250  42.5789528
  66.1887207  51.9374390  20.4470501  66.7289276  51.4832458  19.8004284
  65.4090118  52.2063866  19.9613018  10.3829155  46.0123749  84.5243683
  11.2529974  46.3554611  84.3207016  10.4421606  45.0773849  84.3281174
   1.7187204  50.3888741   4.2433114   1.5682248  49.6613770   3.6397095
   2.6713762  50.4456635   4.3171620  83.0581818  25.6216278   2.1573434
  82.4399490  26.0860214   1.5931153  82.6384506  24.7788544   2.3299303
  36.8538475  11.4077625  18.4147205  37.0300331  12.2783251  18.7715263
  36.9846687  11.5045433  17.4714546  59.6541176  45.3425102   8.4107466
  59.3959579  44.9294891   7.5867324  58.8823814  45.8398705   8.6814613
  30.7916737  45.5508499  67.1589737  30.2370625  46.2569542  67.4907150
  31.6399021  45.6953888  67.5783157  52.6590996  22.0063915  34.4076843
  52.8682785  21.4829826  35.1813240  51.7056198  22.0889034  34.4249687
  48.8294067  26.0513840  26.9933205  49.4419823  25.3811073  26.6904850
  48.1403847  25.5611038  27.4417706  28.3990116  48.9830818  31.2724056
  28.9885063  48.3186646  31.6291637  28.0245743  49.4097481  32.0431099
  12.7195845  51.7892342  87.5469742  13.5429783  51.5096054  87.1468964
  12.0754213  51.7205162  86.8423004  43.0573692   9.9049082  81.5189133
  43.5332451  10.2071476  80.7453308  42.1594696   9.7769251  81.2129135
  66.7273178  38.9957848  11.7344503  67.6059113  39.3680115  11.6585932
  66.8362045  38.0746651  11.4979811   2.4596794  33.0759735  48.7476654
   2.4261627  33.6275330  49.5292625   2.3004942  32.1898766  49.0728226
  43.5744896   6.0656042  84.9177322  43.7695580   5.7905650  84.0218887
  43.5300331   5.2487645  85.4147491  65.4177475  19.4914589   1.2749705
  66.1256180  18.9399738   1.6081642  65.5150681  19.4571495   0.3233495
  55.2157097   0.3971833  86.4451370  54.8339958   0.5844421  87.3027267
  54.4935379   0.0276542  85.9370499   9.8328524  53.9925117  77.8458176
   9.0749817  53.7673035  77.3062363  10.5726767  53.9754677  77.2386856
  57.3623657   7.3354125  79.8279114  56.8166733   7.9518256  79.3395615
  57.6619797   7.8320055  80.5893936  38.3766632  42.3963127  22.7727165
  38.0434875  41.9787331  23.5669785  39.0173416  43.0337906  23.0879707
  66.2454834  46.8570061   0.1489178  67.1675491  46.6613045  -0.0175818
  65.8947601  46.0519409   0.5298221  21.6638813  62.8244438  70.5311050
  21.9126339  63.3362236  69.7614059  22.2827110  62.0942841  70.5434647
  68.1045914  53.8868408  83.8166885  67.4875641  53.6727486  84.5164566
  68.6923828  53.1324348  83.7765427  81.8321457  47.9706879  29.0050392
  82.7607727  48.1656036  29.1310997  81.4199524  48.8278656  28.8974457
  27.9839783  13.8942814  16.8186359  28.8123302  14.3100023  17.0578861
  27.8119755  13.2765408  17.5292988   5.8626227  64.0069122  30.9764843
   5.2824488  63.3193855  30.6494770   5.2892041  64.5847855  31.4799595
  52.2586174  24.6513958   7.2027292  52.9479103  24.0140362   7.0159669
  51.5083427  24.1210403   7.4711342  71.1907578  39.2285194  43.1335526
  71.0197525  38.4870071  43.7141991  71.6714478  38.8502922  42.3972664
  31.6412792  27.6368160  12.8993998  32.1297569  27.1414967  13.5568810
  31.0027142  28.1402512  13.4043932   3.7992637  53.1591644  66.6740265
   4.2268724  53.9325447  67.0418091   3.2081010  52.8608742  67.3652496
  11.3133593  52.9490547  53.9832230  12.2256355  52.9951782  53.6971169
  11.1818838  53.7477875  54.4940796  37.8027763  16.1790371  74.9018631
  37.3116837  16.1154842  74.0827103  38.1884651  15.3106976  75.0178833
  12.6980915  32.3644066   1.0577779  13.1534872  32.7427139   1.8099279
  11.7694683  32.4959831   1.2490340  78.8407516   9.0545130  32.3227196
  79.3333588   9.7532864  31.8922749  79.0518799   8.2678518  31.8199081
  66.9904861  50.5240059  57.9789124  66.2176971  50.0442390  57.6808472
  67.7145538  50.1452789  57.4803925  12.8144674  67.5867767  55.0325165
  12.2046804  67.3589783  54.3307343  12.2720823  67.6171265  55.8206367
   3.4825490  32.8182526  54.3100204   3.7727334  32.4176865  55.1295166
   3.0090287  32.1206017  53.8569260  48.6513824  53.2159767  35.0205231
  48.4997330  54.1226807  35.2872124  48.2188263  52.6923828  35.6950455
  22.1422405  18.6821384  72.9169235  21.6263199  19.1021748  72.2287216
  23.0051556  19.0914268  72.8529663  78.5644913  29.1349564  27.0129471
  77.8125610  29.7266026  27.0409718  79.2794342  29.6722546  26.6717834
  84.5109558  19.0357990  49.4376602  85.1491318  18.6849918  48.8164558
  85.0223694  19.2278080  50.2236748  86.9059525  56.7151070  27.9124260
  86.1738968  57.0302467  28.4425259  86.4968338  56.3775940  27.1155968
  39.5519333   1.4563590  80.6595764  38.9547806   0.9190713  81.1801147
  39.7662697   0.9113246  79.9024582  60.1148033  64.3346634  32.2640839
  59.9833031  63.9440308  31.4001732  59.3941574  63.9932327  32.7935371
  85.7444916  69.7643127  12.3933306  86.5645142  70.2146912  12.5957174
  85.1650162  69.9823074  13.1233435  82.1778488  56.8679314  77.6531830
  82.9676895  57.3842163  77.4924698  82.3420181  56.0350533  77.2109222
  55.6421547  41.1721611  45.1543312  55.0491333  40.4517136  44.9409866
  55.3353844  41.4916039  46.0029068  74.7376251   7.5517869   4.4663649
  75.5477524   7.0430465   4.4331017  75.0218658   8.4413271   4.6764946
  29.0068703  56.0547066  39.1791191  29.5632095  55.9854965  39.9549599
  29.2142220  55.2741776  38.6653023   5.1429968  50.1317596  26.0800934
   6.0071421  49.7204094  26.0966759   4.6429114  49.6655464  26.7500134
  64.3229828  46.9265785  83.6413879  63.7708855  46.1510735  83.7414322
  63.7833023  47.5424805  83.1457748  50.9011803   1.5331751  38.5160141
  49.9735527   1.3928177  38.7058487  51.1658401   0.7546716  38.0259933
  29.9739799  70.9108353  24.2887287  29.7368336  70.6650925  25.1829357
  30.8876629  70.6396103  24.2001171  55.4247475  33.5498276  78.1529083
  55.4941597  32.6039009  78.2818909  54.8055878  33.8382034  78.8235168
  86.3785248  30.8522511  78.2433472  85.9258423  30.0200844  78.1062088
  85.8640594  31.4893017  77.7476425  84.0601425  71.0836563  89.4551086
  84.4980164  71.2947006  88.6305084  83.1694946  71.4167404  89.3454361
  23.5548000  61.7112579  13.9176006  23.7093315  62.5722694  13.5289993
  24.4139671  61.4345970  14.2362289  35.5349960  30.8426781  10.0297155
  34.8124504  30.2710228  10.2892780  35.1960335  31.3317127   9.2799273
  66.8544464  64.3091202  67.1113358  65.9289322  64.5530472  67.0988083
  66.8834381  63.4569016  66.6764679  31.5314159  45.6548004   3.5815809
  31.5152512  44.7722435   3.9517977  31.6284885  45.5175095   2.6392651
  83.7841949  55.9585838  26.0216827  82.9806671  55.8693542  25.5092297
  83.6280060  56.7191048  26.5815468  80.7895355  42.8425064  56.7668037
  81.5220947  42.7638359  56.1557350  80.2364502  42.0848122  56.5764771
  62.5494499  43.6342201  67.2178955  61.8191910  43.5073242  66.6122208
  62.2774620  44.3666458  67.7708969  57.0124168  42.6120529  33.8790436
  57.2431679  43.1223869  34.6552811  56.4082985  43.1740341  33.3938065
  30.1086292  13.8396111  70.4408569  29.9590530  13.1865559  71.1245117
  30.9405975  13.5834303  70.0428238  20.6213608  48.0169640   8.7286482
  20.7503986  47.1035614   8.4731560  21.0580311  48.0923233   9.5771017
  74.9507675   6.5655050  14.7016745  75.5332489   6.9544387  14.0492325
  75.5340805   6.2862873  15.4073772  71.3741531  66.0291977   4.8243866
  72.0057449  66.4978714   4.2788005  71.7495651  66.0585403   5.7044053
  67.4024124  29.7267952  27.7807884  67.4226990  30.6460724  28.0467777
  66.4785080  29.5486565  27.6050110  77.6252823  21.0108681  54.3986168
  77.6844101  21.9245911  54.6776237  78.0669098  20.9906235  53.5496216
  26.0970802  69.6599426  49.0827675  25.2849445  70.0158844  48.7222481
  26.5568733  70.4219131  49.4352150  39.0355644   3.1305416  52.2426109
  39.7861481   3.5714107  52.6407166  38.9065094   3.5829771  51.4090195
  86.4716721   8.9962530  33.4125175  86.1908264   8.3551197  32.7595978
  87.1837158   9.4745512  32.9877129   4.3846827  65.2872314  10.4816608
   3.7513776  65.1208344   9.7834711   3.9762974  64.9233475  11.2671814
  21.7730694   0.5380033  76.6402130  21.0963840   1.0822207  77.0429001
  22.2317543   0.1397138  77.3799515  23.8719177  48.0102196  56.4079094
  22.9178867  48.0145340  56.4856110  24.0403957  47.6266594  55.5472527
  45.6546593  59.2607880  76.2646942  46.1540604  58.6453743  75.7279510
  44.8787994  59.4605637  75.7408981  80.8623734  26.5976868  45.1328239
  80.7500839  27.3837795  45.6673164  80.2351608  25.9710903  45.4936714
  62.3431664  46.0133629  41.3411293  62.8254814  45.2011147  41.4955978
  62.7071419  46.3565483  40.5250549  70.2251892   0.6559486  78.9356384
  70.8622208   0.1556396  78.4256287  70.2536011   0.2616900  79.8074112
  34.0770035  57.8018532  30.2203979  34.9885216  57.9851570  30.4479256
  33.7011070  58.6606140  30.0268421  76.3438034  28.5375061  66.9601288
  76.3912964  28.9502335  67.8224716  76.4015121  29.2663136  66.3422775
  48.6128349  32.2898140  26.4383392  48.9520683  31.7148609  27.1243286
  47.7542610  31.9253712  26.2232590  25.2503910  62.3437576  10.2619171
  24.3285027  62.4743652  10.0398941  25.7212772  62.9617729   9.7028503
  17.5081062  19.5254478  71.1551361  17.1652966  18.8001595  70.6329575
  16.7985172  20.1677494  71.1678925  24.0256214  53.5828629  16.3628864
  24.7330227  53.6650009  15.7233019  23.3591461  53.0600967  15.9170609
  39.9195061  70.5083389  11.8436642  39.6354446  70.4179077  12.7532597
  40.8679237  70.6250610  11.8994074  35.9554443  51.3635902  24.5177364
  36.8754387  51.6275597  24.5304527  35.9329758  50.5491791  25.0201912
   0.8733901  61.9849548  37.9521217   0.6217608  61.0636559  38.0162888
   1.6507308  62.0600395  38.5055962  43.4936180  18.2929897  25.3568172
  44.0236664  17.4975815  25.4078712  43.5192490  18.5389462  24.4321117
  25.9293137  48.9919968  66.9313889  26.8009624  49.3814278  67.0007095
  25.3382950  49.7405701  66.8503418  13.7531185   2.6888721  57.2104721
  14.4558649   2.0404038  57.1672478  14.2044621   3.5327764  57.1918602
  78.2553482  39.4452820  17.9697552  78.7014008  39.0175667  17.2387753
  78.7052155  39.1187057  18.7489872   3.3991299  36.7417603  26.4729004
   3.7806208  36.2379608  27.1918468   3.4963281  37.6550713  26.7424374
  33.9164581  32.0346756  12.8598957  33.5781555  31.4190750  13.5101404
  33.2224350  32.6868248  12.7636471  39.7454300   6.3664598   8.9754181
  40.3156013   7.0612502   8.6461716  40.2470474   5.5620599   8.8429289
  67.9277954  47.1989517  40.2550697  67.5818634  46.3326111  40.4695854
  67.5968399  47.3777962  39.3748932  39.8192558  34.8853607  66.3505402
  39.9342880  34.3870430  65.5414200  38.9180412  35.2052116  66.3087692
  70.4897995  70.0670395  28.1672096  70.7028809  69.2838745  27.6597919
  70.4766617  70.7741318  27.5221634  71.6831131  19.2648106  46.9843674
  72.2813263  18.9371128  46.3128128  71.2527237  18.4806252  47.3250275
  25.4670067  12.6888676   9.1520815  25.5968323  11.7599649   9.3431778
  25.8989697  12.8224859   8.3084078  84.0091629  13.0631361  54.1241112
  83.1049271  13.0882053  53.8111229  84.0578308  12.2662668  54.6521835
  57.7980194   4.4056163  26.6369915  57.9815750   4.2093806  27.5557041
  58.4408989   3.8909609  26.1490707  20.0710831  36.5690041  84.1813736
  20.3810463  35.8898659  84.7804794  19.2948189  36.9299965  84.6095428
  59.3215370  31.5459728  17.6035976  60.0662460  31.0577450  17.2524853
  59.7161407  32.2882462  18.0613632  83.2150726  48.4888725  81.7814789
  83.6351776  48.2881203  82.6178055  83.9326630  48.4936180  81.1480255
  56.2728653  12.1612139  63.6974831  55.5912094  11.9781990  64.3440781
  56.5583382  13.0529642  63.8962746  46.5928650  63.3196869   5.8423538
  46.0428658  63.7277412   6.5111036  46.4214439  62.3821068   5.9306383
  15.6061468  70.9393768  20.8291245  16.1786327  70.6703262  21.5475292
  15.6746817  70.2302780  20.1898212  48.4004211  35.3408966  43.9814110
  48.8533707  35.2933884  44.8233223  47.4723053  35.2694321  44.2043953
  40.8131409  -0.2082269  26.1435776  40.5380821   0.4078618  25.4646015
  40.9885788   0.3404640  26.9080334  68.3987122  29.1668949  45.5004272
  67.8592148  28.3767357  45.4717064  69.2247162  28.9079170  45.0919304
  37.0627708   3.0765533  71.6628189  36.2026367   3.2756140  72.0326538
  37.6813049   3.5224297  72.2414780  50.4882164  15.6366444  85.0016632
  50.0975266  15.1726818  85.7421570  51.2919273  16.0179749  85.3550262
  19.0948601   1.4672121  72.7946243  19.1688442   0.5858749  73.1606903
  19.4053841   2.0434773  73.4930038   5.9882102  31.7636375  85.1270065
   5.5497808  31.2030430  85.7671204   5.2856917  32.2962112  84.7540970
  37.9794579  14.6598606  71.0207443  37.3150101  14.2552156  71.5784225
  38.4486465  15.2578478  71.6025543  19.1423721  24.5584450  77.8366089
  18.8610439  25.4702721  77.7614059  19.4349976  24.3246422  76.9557343
  14.2742062   6.1834164  60.7654495  14.4447269   6.8114643  60.0635147
  14.9251747   6.3908949  61.4358406  15.0132303  46.5428772  27.3439102
  14.7338495  45.8129845  26.7912483  15.8258028  46.2394295  27.7487278
  82.8147049  60.1220665  67.6676788  83.3762360  59.3472023  67.6453552
  83.2120285  60.6867752  68.3306046  72.6224442  41.6618271  67.2513275
  72.7289810  41.4345856  66.3276215  73.2100983  42.4056053  67.3843307
  44.3807220  23.3152447  43.0394554  43.7826347  23.9476452  42.6412163
  44.6743851  23.7384853  43.8462181  11.6130371  46.2753639  17.2639503
  11.8573160  45.3778458  17.4898148  11.0250654  46.1821480  16.5143948
  63.8135033  63.4744186  20.7326298  63.9947739  64.4002228  20.5705681
  64.5552292  63.0130386  20.3412247   3.1543791  12.8692207  87.4414825
   3.6174810  12.1857824  87.9259186   3.8357353  13.4983482  87.2044449
  17.6500492  16.0554352  27.8939857  17.9553146  15.6004419  27.1091118
  17.9819603  15.5283022  28.6207581  50.5912514  69.5662155  60.7098999
  50.6865540  68.7903900  61.2623940  51.4444275  69.9979324  60.7540016
  53.1399422  50.3326721   1.5768951  53.3057060  50.0985985   2.4901106
  53.9755821  50.6779137   1.2626576  17.6270180  52.6602058  31.5354366
  16.9667606  52.0566559  31.1948223  17.8876934  53.1828690  30.7770805
  50.9166565  15.7712975  17.0007877  50.8168373  16.5910435  16.5167599
  51.8105850  15.8017530  17.3416672  84.1549301  31.6622028  27.7056599
  83.6477890  31.3369789  28.4494820  84.7250137  30.9313927  27.4665871
  70.3053818  63.6228828  55.3838120  69.7292557  62.9285698  55.7035446
  70.8141098  63.2096825  54.6861763  72.8785095  64.6119385  56.6291008
  72.1413193  64.9540405  56.1233902  72.6090240  64.7108994  57.5422363
  44.1601295  30.0677357  17.7748146  44.4987068  30.7810154  17.2336750
  44.3166046  29.2785778  17.2561836  74.5221176  16.1043930   7.3560572
  75.0954971  16.7983551   7.0306597  75.1032486  15.5248499   7.8486509
  43.9498138  25.1364632  71.8445435  43.8650169  24.4480286  71.1849213
  44.7227020  25.6326237  71.5749207  77.7259216   4.4376011  59.7499008
  77.3849716   5.2012205  59.2842064  77.4263992   3.6890206  59.2340050
  10.4495535  36.6989746  30.1445694  10.2906952  36.1431427  29.3816490
   9.5925331  36.7825890  30.5626087  78.2256927   9.7285128  50.5058365
  78.6285782  10.3541651  49.9037743  77.2846985   9.8312511  50.3637085
  42.1824875  20.3420410  28.2642117  42.8787651  19.7549095  28.5586758
  41.9988976  20.8955021  29.0232944  44.1393929  35.2074089  24.7673473
  44.1001015  34.4453506  25.3452339  44.1157722  34.8395805  23.8839588
  57.7969322  48.8578873  75.0914917  57.5850143  48.6794701  76.0077286
  57.6561928  48.0224304  74.6460266  32.3927803  67.5670166   5.2989016
  31.5551109  67.6625824   5.7521243  32.9782753  67.1888199   5.9549437
  84.8514557  51.9421577  16.6617451  84.6020889  52.8500099  16.8345318
  85.0412598  51.5772591  17.5260677   7.6291656  43.5834236  77.9171829
   8.4408026  43.5844269  77.4097672   7.9040728  43.7957153  78.8091431
  17.8324757  67.9803925  39.1830788  17.9097271  68.6266479  39.8849449
  17.3455162  68.4322815  38.4939499  61.7722321  44.7133904  76.1640549
  61.3751221  44.0870705  76.7692490  61.2892303  45.5267868  76.3100967
  10.3543110   8.2924957  25.0113506   9.6559057   8.6093140  25.5841389
  11.1229439   8.2368107  25.5790958  40.0533714  39.5368042  87.7245255
  39.9745941  38.6864738  88.1569138  39.2518654  39.6177940  87.2075577
   4.9317384  46.2767639  46.8650017   4.0017676  46.2026367  46.6507835
   4.9686446  46.9536934  47.5407524  62.7887459  36.2669601  73.1368790
  62.0376740  36.0039558  73.6688080  63.4501343  35.5965729  73.3082809
  67.5352936  32.4103317  27.5125237  66.7103958  32.4678154  27.0303745
  67.6938019  33.3017616  27.8230991  46.4404678  35.4020233  84.3428802
  47.1712341  35.9226646  84.6762543  46.5283775  35.4479065  83.3908310
  20.8846684  24.5074234  72.9838562  20.7189312  24.6569767  72.0530548
  21.7847118  24.1833878  73.0178375  78.6347885  22.1316051  64.3441391
  79.2663956  22.7517605  64.7084351  77.9512100  22.6823196  63.9624710
  42.5318832  51.0899506  20.8480053  42.5937920  51.0985336  21.8031616
  42.6816483  50.1759071  20.6064892  51.4280434   0.6394001   1.4624118
  51.7830887   0.2638315   2.2680919  52.1166840   0.5043618   0.8114360
  76.9790192  44.6841850  29.2077312  76.5026321  45.1995087  29.8586731
  77.9013519  44.8111038  29.4300652  36.5944633  56.3763275  30.9994793
  37.2617188  57.0246277  31.2246647  35.8882637  56.5316811  31.6266804
  76.4394531  16.6483040  11.0190496  76.8799973  17.2899742  11.5761995
  77.1204376  16.0113850  10.8026495  25.2297325  25.7489910  65.7384872
  26.0970688  25.3725986  65.5891953  25.3851986  26.6913853  65.8013916
  64.6845627  34.8661728  54.1046181  64.2357941  34.5386200  54.8840714
  64.2576065  35.7018204  53.9158363  45.2606583  40.8589478  69.2206955
  45.9255562  41.3912392  68.7838821  45.2822037  40.0214233  68.7577438
   6.3832526  28.1183891  82.7188721   7.3041167  27.8796158  82.8248291
   6.3742352  28.7097969  81.9662857  70.7160339  47.7388306  81.6349335
  70.3500137  46.9429550  81.2491226  71.6637421  47.6278152  81.5590897
  67.5204010  51.2201729   1.2708557  67.7571335  51.7445450   0.5058574
  66.5989304  50.9999161   1.1344088  83.7143097  52.8713989  13.9826164
  83.9977493  52.5905609  14.8526897  83.5127106  53.8015060  14.0850096
  29.2826233  35.9517555  85.2518463  28.4644394  36.1718674  85.6972198
  29.9456615  36.4832268  85.6924667  50.2391319  43.4738579  31.2965775
  50.1667290  42.8317451  32.0027542  49.9496841  43.0036392  30.5146904
  84.8649902  61.0869560  70.0994034  84.9716568  60.5404854  70.8780060
  84.4569626  61.8896103  70.4242096  43.8253059  28.6816692  72.4537201
  43.1297913  28.0242062  72.4384537  44.6111946  28.1933098  72.6989059
  36.5624199   8.3495827   2.5195906  36.4065475   7.6903081   1.8433564
  36.6948509   7.8436756   3.3213089  31.1390629  55.4694481  45.1279526
  30.2696056  55.8069763  45.3432388  31.0783863  54.5285606  45.2931290
  58.8887138  48.0504684  57.8336525  58.7299957  48.3002701  58.7439499
  58.0180283  48.0258331  57.4367523   5.8585258  23.9214783  80.1119385
   5.4176998  23.7039585  79.2906036   5.1492381  24.1615849  80.7081680
  51.1931381  30.8406296  49.6298866  51.1743050  29.8930988  49.4954910
  50.8359451  31.2045822  48.8198318  46.0750198  31.3819866  26.1937752
  45.2340431  31.8108330  26.3521557  46.0008888  31.0295506  25.3069134
   0.6308195  16.2110977  19.9897633   1.4726413  16.4426308  19.5973854
   0.8525704  15.5893049  20.6828957  38.6685982   7.7546930  64.8355179
  39.3835640   8.2898598  64.4910583  38.0415344   8.3883715  65.1840515
  36.2923126  27.7530136  88.8167038  35.8717918  28.1675472  89.5700684
  35.7839317  28.0533752  88.0633392  59.4205360   3.1340282  24.9733372
  59.4440956   2.9894307  24.0274143  59.9081688   3.9473526  25.1035213
  44.9833412  63.2208939  43.2773438  45.2896347  64.1147079  43.1240158
  44.1450806  63.3287354  43.7267036  22.7406425  48.5338936  63.7138939
  22.5905075  48.3057175  62.7964897  23.6385517  48.8648949  63.7345276
  26.0655231  27.8878574   8.2465000  26.8733788  27.9404087   7.7357759
  25.4299965  27.4929829   7.6494975  49.4200668  48.1800766  68.9778748
  50.2737694  48.0880432  68.5548477  48.7887268  48.1026230  68.2625885
  25.8824024  13.4342966  77.2159119  25.6787453  14.3695765  77.2186203
  26.3808689  13.2953844  78.0211868  29.2334251   5.1527872  86.5120239
  29.8975906   5.8416748  86.5354767  29.6808243   4.4019332  86.1217880
  37.4934082  70.9165192   5.1482220  38.1268005  71.5994720   5.3687224
  37.7541046  70.1664734   5.6827326   2.8167641   5.7471757  88.4016876
   1.8602813   5.7735591  88.4276962   3.0612452   5.1913171  89.1416092
  63.3562355  51.6652985  60.4007912  63.8607712  51.4566116  61.1870003
  64.0036392  51.6730270  59.6957817  79.5495071  62.3902550  25.0093040
  79.4838867  63.1819458  25.5432987  79.5502853  61.6731148  25.6432915
  81.2959518   8.5100870  -0.0696352  80.6895981   8.2785950   0.6339129
  82.0267029   8.9391651   0.3754798  83.4878616  33.8115921   3.5491202
  84.2854156  33.3185043   3.7415006  83.8007355  34.6517639   3.2137764
  36.7969322  32.6419487  76.1251526  36.1877327  32.6654053  76.8630905
  36.5807724  33.4200554  75.6112900   1.4108055   6.6524076  49.9998055
   0.9583661   6.5960436  50.8414421   2.1241693   6.0178690  50.0683937
  63.0638123  32.9489136  12.8119392  63.1724434  32.7187347  13.7346792
  63.8242798  32.5625725  12.3775835   8.3971720  46.5130196  81.9038849
   8.4994879  46.5348740  82.8553467   9.0181637  47.1660461  81.5811539
  28.2834435  58.1630402   8.7703562  28.4102955  58.4229164   7.8578844
  27.3332596  58.1164665   8.8762484  39.9166679  60.5043716  81.2912292
  39.2188721  59.8721581  81.4633179  40.6538086  59.9719963  80.9921875
  44.8125153  35.0075035  66.3990326  43.8574829  35.0493889  66.3501358
  45.0839233  34.7090569  65.5309906  61.1878166  45.3199577  49.4874840
  61.7410355  45.1829185  48.7184601  60.8796577  44.4440575  49.7200050
  39.7181816  51.6807365  21.0877075  40.6629829  51.5279770  21.1033669
  39.3344231  50.8045120  21.0532036  71.4403229  19.3457394  59.6985359
  71.4127426  18.4084625  59.8908424  70.9248581  19.7488441  60.3971329
  60.8269844  40.5516357  84.4376297  61.4802780  39.8557587  84.3655548
  60.3483467  40.3485107  85.2412949  79.7381897  58.4043198  63.3642120
  79.0378189  57.8014603  63.1146774  80.0579605  58.0667915  64.2009048
  80.0858383  48.6728287   1.2158636  80.8354416  48.0824928   1.2922354
  80.2392120  49.3422050   1.8826824  63.2174110  35.5789948   2.8660152
  62.4918327  34.9585266   2.7967863  63.9449768  35.1476707   2.4178662
  78.7280884  57.8458252   8.0500164  79.5124359  57.2975006   8.0309286
  79.0213165  58.6949005   7.7193866  53.3634071  19.9008236  50.8681221
  53.7336388  20.3451099  51.6308632  53.1465187  20.6081772  50.2607994
  49.0664330   4.4548450  26.7295952  49.0485001   5.2913179  27.1945934
  48.5532951   4.6105375  25.9367008  82.0431824  60.2959023  34.0700417
  82.8514709  60.2438889  34.5801353  81.4916763  60.9082832  34.5569420
  72.9141846  24.7674503  56.2973671  73.6815338  24.9368229  56.8439217
  72.2866211  25.4450035  56.5490112  62.8451347  23.8882084  50.6291885
  63.2755508  23.3565960  49.9595947  62.1311417  23.3372860  50.9500160
  60.5808563  19.0008087  67.5535965  61.3036537  18.3913555  67.4040451
  59.9355927  18.4914093  68.0438766  47.8006172  42.9554939  76.5942307
  47.3858604  43.7377434  76.2305069  47.5292320  42.2470970  76.0104828
  26.7873516  23.9479656  80.4556274  27.3492050  23.7783356  79.6994629
  25.9029293  23.7538967  80.1451950  71.2195358   5.5477748  25.1758289
  71.4344864   5.1311946  26.0103874  71.3375320   6.4837408  25.3379250
  18.0163212  52.4330215  26.0848236  18.0796185  52.6994133  25.1676216
  18.6636238  51.7338448  26.1763821  70.1967316  29.7561378  52.7222595
  70.2275696  28.9397182  53.2209969  69.5815048  30.3084106  53.2046700
  79.8881073  54.8964005  52.9445190  79.2610703  54.4233856  52.3974190
  79.6846542  54.6179924  53.8374519  50.4669838  30.4806881  22.3366241
  49.5520020  30.2966156  22.5491314  50.7640419  31.0598240  23.0384712
  63.0496063  19.3119507   2.5597663  62.9719887  18.4282379   2.9192955
  63.9245834  19.3369484   2.1724370  78.2944183  38.2606926  44.2181549
  77.6263123  38.7970619  44.6449814  79.0594025  38.3317909  44.7890968
  51.7177811  36.1231804  57.5233459  51.3386230  36.9796371  57.7207146
  52.5739326  36.1359177  57.9512138  56.1479530  47.3535728   7.3004270
  56.1450272  46.6353531   7.9331884  55.6478119  48.0498848   7.7261472
  55.8116341  37.2642975  83.7059250  55.7496300  36.5016403  84.2810211
  56.6069946  37.7146301  83.9902344  19.4989090   3.7370210  74.4817123
  20.3990059   3.4384282  74.6117096  18.9831123   3.2190056  75.0996552
   7.0984302   8.3836432  21.6601353   7.0591078   8.2098570  22.6006050
   7.7970686   9.0310411  21.5652027  53.3256989  25.8212013  25.0675659
  53.3417206  24.8751965  24.9224834  52.3985291  26.0305061  25.1806183
  14.8741875  42.6548615  42.6352844  13.9855728  42.6120644  42.2820625
  15.4130821  42.9334373  41.8948669  75.7176361  25.9535313  58.1106758
  75.1309967  26.3990307  58.7219200  76.3460541  25.4979095  58.6708031
  59.7337036  54.1559448   0.2653378  58.9804382  54.4364128   0.7851059
  59.8744774  53.2441254   0.5202942   3.6859562   4.7875910  81.9358902
   3.0066414   4.1404285  81.7462997   3.5278525   5.0414224  82.8451767
  81.8161392  28.7099705  65.8651199  80.9501724  28.3861828  65.6171341
  81.7473221  28.8829708  66.8040390  57.8457222  55.9379730  44.7958679
  58.4550934  56.6377411  44.5608749  57.0197830  56.1911469  44.3836098
  75.7233353   1.0226943  25.7790375  76.3517761   1.7423878  25.8367786
  75.4882202   0.9838234  24.8519764  16.8394146   2.5175016  28.9891567
  17.4886112   1.9616992  29.4202690  17.2102966   2.6922905  28.1242123
   1.2119333  70.5875854  53.9265213   0.2627010  70.5583344  53.8067970
   1.5542401  69.9727173  53.2776756   6.5573611  67.2982025   2.1691999
   6.6340575  66.5188828   2.7196636   7.0888824  67.9586334   2.6136630
  84.8550186  65.1853943  20.6207962  85.7593613  64.8727036  20.6457748
  84.8111801  65.7289505  19.8341198  51.1756248  12.9276381  24.3015060
  51.4688988  13.8306780  24.4229240  51.9740906  12.4047194  24.3738804
  33.0475540  60.4423294  84.3701553  33.2762222  61.0149956  85.1022720
  33.7170334  59.7583237  84.3829346  25.0572510  56.4169235  44.6756516
  24.3273754  56.6830406  45.2348442  25.2784538  57.2049599  44.1793633
  72.8889999  55.0203094  25.4523373  72.1295929  54.9923668  24.8703136
  73.0415878  54.1059914  25.6910343  75.5872955  16.7810574  69.9283981
  75.7534027  16.2513714  70.7081909  75.2755661  17.6191063  70.2700577
  77.7823792   4.1353784  14.3358135  77.3462906   4.6374559  15.0242720
  77.0790482   3.8947673  13.7327690   9.6850615  11.3923731  13.9859762
   9.6190033  10.6211367  14.5490599   8.9924078  11.9755764  14.2963581
  60.5428848  13.9141493  67.4818115  59.6629105  14.0901079  67.8148575
  60.9481926  14.7781448  67.4078598  43.0724602  55.4433670  43.4864197
  43.6675415  55.6643257  42.7699776  43.6300316  55.4263000  44.2642746
  26.1470757  60.1577415  57.4418411  26.2856045  59.2315369  57.2438927
  26.2061386  60.2102242  58.3957748  41.7781754  71.2448807  47.0769272
  41.4690094  70.5614471  46.4823112  41.0665512  71.3533249  47.7078476
  64.4129181  44.1333694  63.3822365  63.6721611  44.7066345  63.5794296
  64.0185242  43.2729836  63.2393379  81.8381195  40.3499260  71.7157822
  82.1317062  40.9261475  72.4214783  82.5237885  40.4165916  71.0512238
  49.0619545   0.4525937  26.3508453  48.3332825  -0.1037213  26.6261234
  49.0999489   1.1426475  27.0131245   1.4312204  66.3820190  80.1199951
   2.1536183  66.3913574  79.4920731   1.5140744  67.2101974  80.5927429
  33.9255257  60.6773109  22.8769474  34.6019974  61.1679916  22.4102039
  33.2890320  61.3408127  23.1431694  44.4108696  54.1938896  46.3774452
  44.5624809  53.2656898  46.1994209  45.1021461  54.4355659  46.9938545
  75.4964066  33.8415260   8.9800501  76.1571045  34.4444313   8.6391563
  75.9122009  33.4357262   9.7407560  80.6588669  36.3607559  83.4033585
  81.5812607  36.4001808  83.6560593  80.4354019  35.4315376  83.4567566
  37.5281601  56.5306740  28.4851894  37.1713028  56.5460815  29.3732491
  36.9817848  55.8983307  28.0184479  25.4203129  37.4004784  21.5958061
  25.1527443  36.7835579  20.9145927  26.3769150  37.3938255  21.5626411
  13.1398935  52.8922501  61.7987175  13.3452778  51.9594994  61.7352867
  12.1836452  52.9256783  61.8252411  59.5875816  24.4057426   4.8658466
  58.8434219  24.9070110   4.5323958  60.1344986  24.2483387   4.0962129
   9.3485355  22.3964577  88.7297134  10.2076015  21.9742832  88.7271805
   9.3909874  23.0301857  88.0136032  24.6157341  43.1467819  18.9375801
  24.0265522  43.5470352  19.5770283  24.0337715  42.7032928  18.3204346
   9.4354954   5.4384694  87.0951767  10.0568027   6.1181455  87.3564224
   9.4006538   4.8447342  87.8451691  66.3907318  43.1063461  25.9185944
  66.9752121  43.2572021  26.6614609  65.5186691  43.3145790  26.2538242
  52.7084694  24.4499626  60.4225731  53.1494026  23.7151279  60.8489914
  51.8146057  24.1405277  60.2759781  86.1905594  68.3031540  74.5723877
  86.9506531  68.7689438  74.2237701  86.3647995  67.3819962  74.3791580
  39.5224304  28.4555206   8.9873762  38.6389008  28.1492901   8.7828646
  40.0242805  27.6547260   9.1393909  12.2847319  29.5334034  60.0481644
  12.9888573  28.8888168  60.1184998  11.8422489  29.4982586  60.8962212
  47.9304543  41.7205009  64.6473007  47.9657669  42.1621819  63.7988319
  48.2046852  40.8224564  64.4614334   2.1035097  44.8960800  81.9043732
   2.2153964  44.0797424  82.3915100   1.4695265  45.3965416  82.4180222
  74.3568039   4.9680634   6.3301129  73.9714432   4.9723091   5.4539227
  73.6088486   4.8759041   6.9202852  75.0528564  60.1659927   9.7715483
  74.1653519  60.4436226   9.5446386  75.0761795  59.2347679   9.5513134
  22.6439590  37.9228439  68.7025757  23.5304737  38.2512970  68.8523865
  22.0726471  38.6161613  69.0329514  81.8751297  24.5595722  13.9698725
  82.5673141  24.2470837  14.5525055  81.7791519  23.8652420  13.3180094
  84.9309998  49.9909019  38.0587616  85.2651062  49.1272583  38.3010979
  85.6611023  50.5863152  38.2280884  83.9053040  28.8599777  48.2661743
  83.4609909  28.0206394  48.3858604  84.4428406  28.7369976  47.4837646
  56.2210732  50.5134201  41.7528992  56.4854050  51.4219284  41.6080856
  56.4939690  50.0549927  40.9581604  77.8148499  20.3498516  57.2637558
  78.4278412  19.7597790  57.7022629  77.9439621  20.1791821  56.3307838
  51.2672005   3.9786558  84.5691681  52.0737038   3.5312285  84.3130569
  51.3957062   4.8842330  84.2869492  61.6395874  33.8593712  81.7964554
  61.6163521  32.9313774  81.5629578  61.3569221  33.8834763  82.7106476
  29.4146004  70.3785248  50.2943840  28.9736233  69.5823441  49.9979515
  28.9406776  71.0895615  49.8630409  41.8306198  23.2206612  86.4303055
  42.0549049  24.0711861  86.8078461  42.4607430  22.6130409  86.8175812
  86.1141663  50.4874649  88.2764435  86.9593887  50.8862076  88.0695038
  85.5081177  51.2262459  88.3324890  44.7281036   9.1348171  32.8635674
  45.1896019   9.8116989  32.3685112  44.7954559   9.4172792  33.7756615
  24.6345520  -0.1392139  52.2937546  24.8635273   0.3496268  51.5032883
  23.8486786   0.2954612  52.6249542  79.1256180   8.7537680  76.6266861
  78.5290222   8.7325621  75.8784561  78.5894165   8.4738817  77.3685608
  84.4002914  46.4529457  66.3160095  85.1588669  45.8931084  66.4814987
  83.7927475  45.8955231  65.8297958  10.2181492   3.6529999  13.5606022
   9.4312534   3.1161084  13.4669323   9.8925104   4.5084262  13.8406687
   2.8182871  25.8968811  27.5032330   3.4746442  26.5901241  27.5728016
   2.9440928  25.3680019  28.2910728  84.8663406  23.3739433  81.6336441
  84.3458939  24.0328102  82.0932693  85.2062454  23.8310928  80.8644104
  13.8193502  39.9041595  12.8359337  12.9575195  39.5809059  12.5732803
  13.8959341  39.6598015  13.7582445  10.7359734  33.3798981  81.5120850
   9.8694544  32.9758186  81.4663010  10.6666479  34.1585121  80.9596481
  27.0766544  36.0967064  88.9104233  26.7361526  36.5301743  89.6929779
  27.5273209  36.7906303  88.4291763  51.5166702  70.4843674   7.0008755
  51.1238365  69.6709061   6.6843271  51.8790398  70.2578964   7.8573980
  64.6893463  56.0448380  45.8780823  63.8094139  55.7788048  45.6112976
  64.7390289  56.9727211  45.6482925  62.2918510  55.0661469  42.3658371
  61.9663162  54.9912567  43.2628593  62.1186066  55.9757652  42.1233292
  44.4700012  37.8040771  54.1626625  44.4146156  37.8200836  53.2071991
  43.6264992  38.1475143  54.4572601  51.2537460  54.9131355   8.9434395
  52.1437607  55.1280975   9.2225494  51.1452522  53.9914474   9.1778584
  38.2418709   7.4090676  88.3662338  38.7005081   8.1065216  88.8346786
  38.5621338   6.6007953  88.7666779   4.6056709   0.8559110  16.7933483
   4.9244556   1.7581673  16.8166218   3.7713308   0.8845234  17.2616329
  74.5801926   9.1368570  40.1423836  73.7423019   9.0316219  39.6917152
  74.3459167   9.2236509  41.0664024  54.3901939  36.0930252  21.9061947
  53.5185051  35.8178673  21.6221542  54.4645576  35.7653961  22.8024979
   6.1568890  45.8297043  80.1547394   6.6308947  46.4338799  80.7261658
   6.6013489  44.9901695  80.2724991  34.2365608  35.7992210  67.7072449
  33.4000206  35.6300697  67.2738571  34.5695572  36.5908279  67.2845078
  59.4468307  56.0986786  57.5694695  59.1973877  55.7093887  58.4075966
  58.8064995  56.7962265  57.4293442  19.2220745  60.8417969  69.1508789
  18.7643528  61.3590851  68.4882126  20.0497265  61.3034210  69.2855148
  80.1668625  42.3612633  22.8236828  80.6080017  42.8743019  23.5007477
  80.6018143  42.6147881  22.0095749   6.0711045  21.3577824  75.9532547
   7.0176549  21.2180958  75.9256592   5.7560067  21.0303020  75.1108170
  55.1406097   2.0546348  25.6722260  55.4252167   1.1810150  25.9405918
  54.2129021   1.9499390  25.4609680  76.2019272  37.3210640   9.0037260
  75.3712082  37.4992447   8.5628366  75.9825745  37.3171425   9.9354448
  57.9237747   0.1277770  43.9822578  58.4547462   0.8736314  44.2615471
  57.3677559   0.4770291  43.2857704  22.1530991  12.3887930   6.5579472
  21.5109043  12.7869730   7.1455445  22.2384357  13.0134840   5.8377318
  84.8527298  49.5887794  47.9982567  85.2349091  48.9268341  47.4220619
  85.3682632  50.3778725  47.8315620  38.4804497   3.7980475  69.3312912
  38.4229584   4.7517505  69.3894043  38.0501823   3.4832754  70.1262894
  69.7493973  69.2023392  52.0770378  69.4851837  69.4675751  51.1960869
  70.6911774  69.0458908  52.0077248  82.3221512  19.7008858  71.1287460
  82.3533249  20.5842381  71.4961014  83.1999664  19.3489532  71.2764511
  61.0503082  41.8158073  30.0925732  61.2028122  41.0933037  29.4835052
  60.2573090  41.5659218  30.5668507  44.4171104  36.0706787  79.6381912
  44.5888252  36.1491661  78.6997986  43.8730087  35.2871552  79.7174072
  27.9840603  61.1434441  42.8852081  27.0432262  61.2692604  42.7617874
  28.1062412  60.1949501  42.8444748  70.8125381   3.3286383  30.1522236
  70.4318619   3.6332464  29.3284969  71.2922897   4.0855050  30.4887142
  73.4391937  40.9293137  34.5155792  72.5965576  41.3802299  34.5691528
  73.4713058  40.3872299  35.3038330  84.3141403   0.9685674  16.2717228
  85.0657425   0.8668513  16.8556538  83.5577164   0.7440664  16.8136253
  86.2296753  55.7857056  61.8143120  86.5289307  56.6279984  62.1566811
  85.7382965  56.0093803  61.0239029  25.8263569   0.2032893   0.7056340
  26.4757938   0.8986257   0.8103767  24.9836693   0.6564167   0.7336598
  23.6453876   0.9842713  71.0225830  22.7574978   0.9868152  70.6649857
  24.1499310   0.4523592  70.4071732  71.7268219  42.7373047  83.6566391
  70.9661865  42.8050232  83.0795059  71.4326248  42.1786385  84.3760605
  45.3943214  37.1563377  57.2400665  45.5290794  37.2299652  56.2952652
  45.9645844  37.8267708  57.6163025  77.9889145  43.3830299  20.2882195
  77.8927307  44.1925621  20.7898540  77.2567978  42.8362274  20.5732479
  64.0342789  11.8334770  19.0440464  64.8629913  11.6540394  18.5999012
  63.6973724  12.6194963  18.6140499  35.2604179  61.3862305  65.7741547
  35.4201279  61.4831696  64.8353653  36.1258965  61.4703636  66.1742859
  63.1940918   5.9677029  20.9976063  62.8913269   5.9524355  21.9055328
  63.7178345   5.1717119  20.9063625  15.0501785  70.9152527  67.4801788
  15.9805002  71.0668106  67.6468048  14.7601814  70.3747635  68.2150269
  84.6352921  26.0433979   9.5018024  83.8603745  25.6845551   9.0694151
  85.2287216  26.2653332   8.7842932  65.7029190  55.9839706  49.9945564
  66.0767136  55.8636208  49.1216164  66.0356903  56.8340263  50.2824821
   0.8622500  41.8545723   9.1801119   0.4459479  41.4277191   8.4313002
   0.2181891  41.7838173   9.8846760  58.8931503  61.7312279  45.2185593
  58.1221504  61.1670837  45.1591644  59.2159004  61.7911873  44.3194084
  13.1204910  57.1148033  61.8560448  12.8776569  57.4517975  62.7184219
  12.9789419  57.8520813  61.2622299  29.4939098  30.6206474   8.8416777
  30.0373249  30.2301807   8.1572323  28.7436314  30.9857845   8.3726463
  85.0625687  45.0552254  76.0151978  85.4676666  44.9374542  76.8744202
  85.2124634  44.2245407  75.5638428  43.1711311  43.9854927  22.6127453
  42.8843002  43.0776825  22.7119350  43.5128403  44.0325089  21.7198544
  28.6276150  52.7140884  35.8153267  28.3088913  53.5782776  36.0757561
  27.9481068  52.1087532  36.1120911  51.2847176  20.3830833  59.0368042
  51.8787384  19.7783184  59.4813614  50.9948158  20.9827595  59.7242470
   3.6698682  47.3385963  65.2645493   2.9967396  47.6431808  65.8731155
   4.4342470  47.1727257  65.8163147  69.1272278  30.8605366  30.5850754
  68.2350235  31.1749268  30.7312202  69.6846695  31.5251293  30.9898071
  75.9260788  68.7647781  37.4415054  76.7360840  69.2338409  37.2412529
  75.2703094  69.4538879  37.5479584  54.4705124  27.7867413  58.2397919
  54.9413795  27.7952003  57.4064598  54.2330856  26.8688450  58.3714294
  57.1040535  25.6814747  73.8572693  57.4792366  26.1998253  74.5691528
  57.6658592  25.8662090  73.1046219  80.6011887  46.2408295  57.1864548
  80.5453262  46.1757851  56.2331047  80.2730484  45.3994064  57.5035706
  72.8527527  19.0406418  40.8737907  73.6165619  19.2834015  40.3504410
  72.5659256  18.2049408  40.5055962  49.3690758  21.6394062  80.2996674
  48.8551903  20.9126148  80.6516953  49.7042465  21.3133221  79.4644623
  54.2968636  49.4136047  11.6328402  54.8135643  48.6122665  11.5485258
  54.3956718  49.6668472  12.5506287  62.9423370  16.7282944  79.3069153
  61.9911919  16.7994843  79.2264175  63.0813637  15.9160175  79.7938614
   5.7036486  64.5230560  72.2790070   5.4689889  63.6137276  72.4641647
   5.6912484  64.9525452  73.1343536   6.9433465  41.9948959  82.2545090
   7.4005899  42.5070992  81.5875702   6.5111499  42.6486855  82.8040543
  55.0642357  67.8533936  86.3951721  54.7939453  68.5238190  87.0226288
  54.4017105  67.1674347  86.4773331  68.6587067  68.7240372  58.3569908
  69.4681320  69.1520920  58.0780067  68.5223083  69.0306320  59.2534409
  56.1018333  40.0262032  58.0842705  55.8699493  39.1364098  58.3502197
  55.2673950  40.4946594  58.0619812   3.6164396  37.8742065  23.8606091
   3.5915332  37.6900787  24.7996025   3.5523593  37.0138206  23.4460430
  71.2208099  60.3731880  29.4239330  72.0787430  60.5812378  29.0539322
  70.6096573  60.9265442  28.9375992   6.7423253   1.1220837  47.8865356
   6.2708225   0.2901964  47.9298973   6.7578473   1.3403006  46.9546700
  12.1262856  48.8442802  10.4406815  12.3177261  47.9405441  10.1900043
  12.3073502  48.8757515  11.3800735  85.5638885   0.9780471  22.4237823
  84.6701660   0.9236895  22.0853443  85.4932938   1.5366263  23.1978874
   2.0132577  59.7617264  62.6658325   2.2823601  58.8449097  62.6086845
   1.2432058  59.8210106  62.1003799  76.4819336  22.1675358  34.2144279
  77.0456772  22.5146503  33.5230942  76.0090103  21.4467278  33.7984924
  15.3362541  44.1798286  18.2954044  15.1965160  43.3069954  17.9281578
  14.7449684  44.2209091  19.0470200  68.6025314  55.9192467  87.3086700
  69.2010803  55.8332787  88.0506897  67.9772491  55.2032814  87.4211349
  38.8098564  30.1469288  52.4069939  38.8531761  29.2224541  52.6513290
  39.5778008  30.5404091  52.8213272  65.6571579  51.7982635  80.9949417
  65.5504303  51.1359520  80.3121643  66.5374298  51.6475182  81.3393555
  65.2682800  51.9494781  68.3689346  65.4946671  52.8774719  68.3072052
  66.0832672  51.5210190  68.6305695   8.7459230  26.7718964  86.0575790
   8.1776657  27.4539528  85.6996460   8.4095440  25.9583263  85.6818314
  10.9434462  16.4739552  73.2798920  11.1572485  15.8493357  72.5867996
  10.4595528  15.9589520  73.9255295  60.4464417  56.6169586   2.6290331
  60.1321373  55.9542542   3.2440662  59.6503944  57.0303612   2.2949049
   1.9005650  14.5487576  81.8141479   2.7291198  14.5920849  82.2914886
   1.4411228  15.3521709  82.0584259  62.0675774  50.1588097  30.2889080
  61.3883972  50.8188324  30.1499386  61.7884674  49.4125443  29.7584171
  32.5739670  48.8840446  31.5692692  33.3639221  48.9685287  32.1031799
  31.8765335  48.7053299  32.2000465  77.6881332  23.8769207  79.7222519
  78.6015701  23.8555336  80.0075531  77.1959610  24.1032276  80.5114212
  45.5865021  31.0755539  85.0322571  45.5274544  31.3534966  84.1182022
  45.2035904  31.7993908  85.5279083  21.9838066  60.2076530  53.3474350
  22.0434856  60.4871254  52.4338913  22.8037262  60.5039711  53.7426071
  44.5529785  56.9250488  82.8760834  45.3470421  57.4575729  82.9220963
  44.5107727  56.6362305  81.9644775  28.7868137  48.0310478  44.5032005
  28.1225586  47.3896027  44.7552795  29.5595779  47.5061798  44.2944374
  75.1628265  29.7948074  88.6896210  75.7303467  30.0882053  87.9768219
  74.7950974  28.9678020  88.3780670  13.9605227   7.2195344  77.8755951
  14.3886642   7.3480878  78.7220001  14.5816755   7.5701728  77.2372742
  69.9084244  48.5301971  29.3974133  69.8657684  49.2931290  29.9739075
  70.4076920  48.8312531  28.6382542  81.3342361   7.1745963  71.2423630
  82.0573807   6.9042373  71.8082199  81.7495804   7.6963186  70.5556793
  81.0115814  28.7456551  79.5498505  81.7120438  29.3947201  79.6154099
  81.3091965  28.0163250  80.0936584  75.3860855  59.5245934  87.5271835
  75.8314667  59.3571815  88.3577499  76.0102539  59.2408409  86.8592529
  55.3257332  16.9001179  85.9044724  55.5612984  17.6776562  86.4106140
  55.9963951  16.2553940  86.1298218  22.1237640  51.7163086  15.4308186
  21.6096649  51.2395439  16.0824528  21.4878540  51.9670677  14.7607651
  54.0290833  33.7471695   5.7958579  53.1802216  34.1625137   5.6436892
  54.1988945  33.8837242   6.7279243  47.3169975  37.9275169  53.7944984
  46.4473000  37.5454063  53.9121895  47.2888260  38.7448349  54.2919197
   1.9572574  19.5845394  14.2058764   1.6026775  19.9069405  13.3772860
   1.3769391  19.9505711  14.8733215   4.4525466   0.1668626  31.6156425
   3.8407369   0.8209094  31.9534931   5.3154674   0.5656855  31.7276249
  27.0921860  62.9809837  69.3011932  26.4689751  63.6399879  68.9953308
  26.8139839  62.7852745  70.1959229  78.4138794  47.8425217  41.3272934
  78.3791275  47.9073906  40.3729286  77.4967041  47.8460655  41.6011581
  46.3089867  34.0569687  71.4382553  46.0414772  33.4132195  70.7823181
  45.4880104  34.4424057  71.7443161   7.2449789  29.0133324  86.0336380
   7.6134658  29.6769218  85.4504623   6.3680530  29.3365421  86.2404480
  42.3631783  65.3002014  13.6580801  42.4228249  64.9792099  14.5578804
  43.2180939  65.1019669  13.2759027   8.9948244  49.0782089  16.6179886
   9.3707371  48.9878502  17.4936352   8.3599987  49.7896500  16.7021122
  32.4211273  19.0579929  74.5183258  33.3568916  19.0661316  74.3170471
  32.2991257  18.2773056  75.0585785  51.9133339  40.2255287  52.1791306
  51.0462265  39.8203888  52.1937103  52.1846123  40.1778183  51.2624168
  28.2879219   0.3839975  63.6491966  28.6078701  -0.4516702  63.9890823
  29.0778313   0.8477703  63.3713646  28.5294380  19.9311085  16.8217831
  28.5362263  19.6631031  15.9028940  29.3324623  19.5585270  17.1858807
  42.3545151  59.2103653  68.3736572  42.8212929  58.7194595  67.6973724
  42.0491142  60.0006447  67.9282150  47.1996117  22.0387058  39.9472122
  47.4755249  22.8923283  40.2810287  47.8440475  21.4243832  40.2986984
  70.5023727  51.0294151  74.1747818  69.7808380  50.4084511  74.0746918
  70.2900009  51.7424583  73.5725327  24.3260632  49.3189011  49.9763298
  23.6841640  49.1108627  50.6552391  25.1180592  48.8531418  50.2447395
  12.2800388  27.3515472  82.6686935  13.1433125  26.9565563  82.5463257
  12.2313786  27.5349712  83.6068954  69.8138962  60.3840485  86.0914154
  69.5436478  60.4019737  87.0094986  69.2058411  59.7734795  85.6746368
  33.1074181  68.9671021  24.6359406  32.4337082  68.3076553  24.8016872
  32.8840370  69.3272552  23.7776718  84.8256607  70.1291885  47.6467056
  84.2386627  69.9879684  48.3894844  85.6718445  69.7939453  47.9430351
  32.1172180  32.3285637  23.5413704  32.3430481  32.6475601  24.4151421
  32.6126022  31.5148621  23.4480209  59.6181145  16.9792538  54.6331329
  59.9793739  17.8200607  54.3524818  58.6915016  17.1581383  54.7931862
  49.8761749  61.3573456   4.8091674  50.5821495  61.8974800   5.1642528
  49.6803856  60.7308044   5.5058360  42.0569191  10.2535591  53.5647926
  41.2831421  10.1601238  53.0091209  41.7185059  10.1958742  54.4583168
  60.9128990  62.0167694  36.3374443  59.9823189  62.2070618  36.2189789
  61.0793648  62.2014809  37.2617836  55.6461678  28.8357811  30.6249847
  55.0632820  28.0861225  30.5046234  55.1001549  29.4981441  31.0485134
   3.7098064  59.1585388  38.8563004   3.7402179  58.9261551  39.7843666
   4.3284121  58.5590935  38.4389000  60.3649826  32.9468994   7.7518678
  60.6400452  33.2173386   8.6279020  60.4910126  31.9980698   7.7435031
  49.9920464  45.9624634  25.7368431  50.3934708  46.6154022  25.1634617
  49.3826981  46.4626846  26.2797070  81.3525238  45.2186050  35.8723106
  80.5994568  44.7192841  35.5563927  81.4663696  45.9151497  35.2257118
  18.1848202  15.2183800  56.2255745  18.9661007  15.1150808  55.6822891
  17.4993038  15.4818239  55.6116562  12.2019453  54.5910645  25.6381836
  11.5498228  54.9757957  26.2238045  11.6909227  54.2363701  24.9106674
  54.9229851  55.1095848  33.5353775  54.4836922  55.6539803  32.8820114
  55.1987305  54.3307953  33.0519714  25.3521404  61.7686577  43.0322647
  24.4899940  62.0028954  42.6886482  25.7110806  62.5929565  43.3607826
  45.2363625  60.6038857  11.9145393  44.7876549  60.6947632  11.0739222
  46.1271515  60.9104004  11.7449169  80.1844864  57.4144821  36.3437500
  81.1383972  57.3352165  36.3458710  79.8695374  56.5143623  36.2611237
   0.7740579  38.2355042  15.0240555   1.3916457  37.5061340  15.0773230
   1.2817984  38.9996834  15.2969275  45.2848587   6.8981190  63.3420296
  44.8431053   7.1960201  64.1372299  44.5796013   6.5669265  62.7860107
  34.9639053  57.5731392  60.5543518  35.2926521  56.8090706  60.0806961
  34.1595688  57.2672653  60.9735336  61.6622124  34.2413635  77.5935974
  62.0251884  35.1158791  77.4532471  62.0834389  33.9331398  78.3959656
  65.0950241  46.9794121   6.6774454  65.1021576  46.7357063   5.7518167
  65.9038315  46.6075516   7.0292673  84.3824921  60.4382782  35.4853706
  84.3392563  61.3848267  35.3496971  84.8961639  60.3343430  36.2863503
  56.3879662  71.7758102  57.7611275  55.8651772  71.6345520  56.9718399
  56.8478127  70.9470978  57.8953247  85.3723373  55.0932198  82.5562057
  85.3602448  55.7486267  83.2537155  84.7110596  55.3943634  81.9330978
  37.7098122  29.3545723  11.1992731  38.5156517  28.9421177  10.8882561
  37.2589073  29.6310425  10.4014750  64.5649872  68.1026611  19.8644753
  65.3222580  68.6873245  19.8337383  63.9695778  68.4467316  19.1986389
  60.1324120  30.7794476   1.2491978  60.8006210  31.4297905   1.0328940
  60.0544968  30.8239460   2.2021830  54.9959030   2.1914630  79.3292770
  55.4210167   3.0248342  79.5317688  55.4062195   1.5627699  79.9230881
  68.6628418  60.6466217  64.6622696  69.5043716  60.8144836  64.2381439
  68.0729904  60.4207191  63.9430504  43.7334595   2.1075449  13.7533541
  43.4403267   1.9883617  14.6567383  42.9266014   2.2365654  13.2547874
  75.6003265  42.4186440  44.9260826  74.8020935  41.9228249  44.7438240
  75.3176346  43.1207542  45.5120506  13.0052547  45.5844307   1.2630916
  13.3289633  45.3777237   2.1398561  12.0521345  45.5573578   1.3471233
  49.8965645  61.5207062  28.6478996  50.0782318  61.6714973  27.7202721
  49.9817886  62.3841820  29.0521011  56.0794067  58.3379936  26.7777920
  56.0875740  58.2643471  25.8234653  56.9333344  58.7110748  26.9965420
  47.9553566  58.0344276  67.0515823  48.0671005  57.1881218  67.4846115
  48.0760689  57.8451538  66.1210785  66.8366241  36.3578339   7.6463370
  67.3274994  36.8255959   6.9707093  66.6804047  35.4908562   7.2719283
  11.8408747  44.4147339  43.8876266  11.1794109  43.8643456  44.3068771
  11.3756056  44.8431473  43.1691437  61.4611206  48.7470474  68.2808304
  62.3032875  48.3410912  68.4862289  61.6877174  49.6210251  67.9629440
  61.6206665  48.2855835  49.5352974  61.9015808  47.9954109  50.4031219
  61.2644463  47.4984703  49.1232414  14.5605907  62.3611069  76.5325775
  14.2322216  63.2324905  76.3109894  15.3600197  62.5263672  77.0324097
  22.6782722  22.8359261  20.5459499  23.3326778  23.5302753  20.6225224
  22.8588123  22.4290428  19.6985531  49.0316353  12.7754688  38.8429909
  49.7165451  13.4404716  38.9130096  49.4386368  11.9763088  39.1775475
   6.7324648  67.2373428  10.4762039   5.8729634  67.5209579  10.7877359
   6.9287405  66.4560013  10.9931269  54.7776375   7.0739493  29.4446354
  54.9913979   6.3000989  28.9233913  55.5806389   7.5949163  29.4403362
  75.3748627   6.8566804  23.0768890  75.1916122   6.4926963  23.9430103
  74.9275970   6.2670913  22.4697876  76.2757339  70.3950424   2.2514613
  77.1033401  70.4941864   1.7808601  75.8798828  69.6082153   1.8767161
  79.0880432  64.6866837  80.2158127  78.4141235  65.0996094  79.6758575
  79.6567001  65.4088440  80.4829178   8.3436413   1.8123847   0.4802979
   8.8713942   1.2968165  -0.1295365   8.7708683   2.6686769   0.5020317
  11.7665653  67.8462219  57.4282036  12.3858204  68.5486908  57.6264420
  10.9084148  68.2196732  57.6290550  55.3982887   2.1177762  54.7776871
  55.2010536   1.1845708  54.8580475  56.2525215   2.2190564  55.1975250
  65.7006378  10.4189892  58.0241203  66.0974884  11.1092958  57.4928780
  65.3753510  10.8723917  58.8018417  50.4829636  21.9363232  48.9862480
  50.2885246  22.8082695  48.6425438  50.4222755  22.0344219  49.9364738
  76.4332581  18.9565544  18.8496017  76.1474075  18.1959515  18.3436317
  76.1428528  18.7728119  19.7429867  46.9724503  70.3203964  27.3074627
  46.2973099  69.6761856  27.5205364  46.7902679  70.5673218  26.4007816
  22.0781326   4.4875646  72.6620712  22.1576042   4.4841828  73.6159592
  22.4401703   5.3323126  72.3945618  75.9565048  34.3875427  31.0492687
  75.7786560  35.2715416  30.7280979  76.8929672  34.2611504  30.8966389
  50.5550117  21.2851677  87.1559601  50.4353676  21.5585537  86.2464676
  50.3646240  20.3471050  87.1511078  36.3488960   7.7849474   6.3336797
  35.4398613   8.0257330   6.5123172  36.7773323   8.6125088   6.1150117
   7.8340578  46.8814545  84.7029495   7.5948949  46.1191978  85.2302094
   8.7908697  46.8973351  84.7250977  85.2575531  67.7034912  35.4871902
  84.5809860  67.0734482  35.7352486  84.9408951  68.5408325  35.8260460
   2.0909379  41.0937080  62.3372421   3.0066669  41.1935654  62.0770493
   1.5936977  41.2866554  61.5424118  57.8267860  14.4618626  42.9417076
  58.2211761  15.0242481  43.6083527  58.2960587  13.6313457  43.0208130
  28.3171692  70.3740387  54.5991478  28.0642700  71.0573959  55.2198715
  28.0070248  70.6934586  53.7517929  13.0087843  11.5229969  82.7179337
  12.6674757  10.7909622  82.2042542  12.5756702  12.2944746  82.3526001
  20.9153175  52.9822578  61.4575615  21.6723690  52.4041710  61.3631058
  20.8990707  53.2055016  62.3882256  78.3111954  34.2055244  78.4175568
  78.3483047  34.9489555  79.0193558  78.6764297  33.4749260  78.9166183
  13.8197289   6.2394953  86.1423111  13.3590097   5.6426296  86.7319870
  14.6371899   6.4420562  86.5972366  27.4403057   5.4135637  10.4169998
  27.1424522   4.8202882   9.7274065  26.6580238   5.9076238  10.6622934
  32.7130623  38.9831047  22.2901726  31.8059177  38.9501572  22.5938721
  32.6509132  39.2779312  21.3816319  63.1802025  18.7069130  15.4030323
  63.4795761  17.9888382  15.9606819  62.5032082  18.3153419  14.8511419
  57.1101913  55.7066879  82.1818848  56.2102013  55.9443092  81.9587555
  57.5146637  56.5301628  82.4548721  11.5610619  37.8277435  11.9132547
  11.7122793  37.9196854  12.8539524  10.7537231  37.3175201  11.8491888
  57.4978828  21.4472389  25.9979553  57.1155243  22.2856674  25.7389679
  57.4504013  21.4474545  26.9539757  67.7034531  14.4786463  15.8040667
  67.5607300  15.0475960  16.5604782  68.6553955  14.4055586  15.7355680
  63.0388412   6.9106464  65.1061401  62.1385460   6.7949672  65.4099731
  63.3332062   6.0265369  64.8871994  58.5438881   2.2817683  17.5335178
  58.3287010   2.4029467  16.6087246  57.6948166   2.2099648  17.9695797
   0.2881116  50.5115013  66.0355835   0.4566658  50.1037750  65.1861267
  -0.3908760  51.1624794  65.8582916  63.7261772  27.1594486  69.5062180
  64.4580688  26.5526314  69.6172791  63.9667549  27.9233627  70.0304260
  19.5573101  61.3532219  36.0515213  18.8383369  61.1784325  36.6587753
  20.1766376  61.8783340  36.5583992   4.9504027   3.3562322  29.7780132
   5.4670630   3.3949826  30.5828686   4.6850162   2.4392512  29.7076740
  52.8746567  49.7409706  26.6172848  52.5278778  49.0655289  26.0343971
  53.6364517  49.3335533  27.0294895  65.9768982   8.8021040  36.4952774
  66.8889618   8.7577915  36.7823334  65.6450958   7.9120655  36.6134720
   6.6144686  59.8122635  45.0250130   5.8880758  60.3637772  44.7344627
   6.8758283  60.1845169  45.8672447  49.2313042  42.4546661  73.3175659
  49.8889542  41.8341064  73.6316223  48.5114632  41.9047394  73.0083084
  62.1490211  36.9877739  53.2659454  62.5529823  37.7227478  52.8045731
  61.7007790  37.3894348  54.0102425  10.4673338  47.8927345  40.0966568
  10.9848022  48.5559387  40.5534058  11.0808535  47.1742935  39.9428253
  50.9210358   9.9548435  35.8742943  51.6347351   9.9154253  35.2376556
  50.2949867  10.5712700  35.4944115  38.8243294  21.7229538   6.7128496
  38.7204208  20.9955235   7.3262682  39.2082214  22.4256077   7.2373838
  67.5623550  37.1733322   4.4394088  66.6461792  37.4503593   4.4294395
  67.5868454  36.4061546   3.8675113  54.0024757  62.6339226  14.7387218
  54.2077408  61.7243004  14.5226545  54.7269249  63.1375961  14.3676157
  45.2875023  68.9115601  15.8803940  45.7552338  69.6297226  15.4541330
  44.6248131  69.3437271  16.4191914  28.8314457  29.9624538   2.4039063
  27.9240780  30.2165375   2.5723085  29.3519115  30.5720253   2.9271362
  38.9005928  47.2880211  86.6732101  38.5851440  47.6626778  85.8507996
  39.4049301  46.5188599  86.4081345  57.4915199  22.3221569  18.2192173
  56.7538071  21.9642639  17.7253323  57.7780418  23.0785351  17.7073288
   8.8965120  68.9425507  10.5627728   8.7657137  69.6756668   9.9613876
   8.1252632  68.3896027  10.4376621  83.9903717  26.5893612  22.9575996
  83.2284317  26.7118740  22.3913174  84.3556976  25.7465191  22.6885529
  40.9334526  69.4792862   2.2246010  40.9317474  70.0983124   2.9546921
  40.0505028  69.5370941   1.8595099  69.6048355  36.1677742  68.4232864
  70.5276871  35.9956970  68.2362976  69.1942520  36.2348900  67.5612259
  55.3343391  18.3548088  40.7000046  55.5019417  19.1588459  41.1916008
  54.3808327  18.3130150  40.6270866   7.2692599  64.1641693  52.6194229
   8.0873146  63.7086754  52.8182755   6.6027179  63.4773674  52.6353722
   7.3584113  55.8128510  46.6510925   7.2776213  55.0214996  47.1835060
   8.3000212  55.9805527  46.6126328  79.6172028  42.6873207  34.6112328
  79.9325485  42.7723541  35.5109901  79.7192001  41.7574005  34.4085655
  84.7889557  11.9709921  38.1200562  85.2561798  12.7224483  38.4850883
  84.8176270  11.3114033  38.8131294  58.3280411  68.8543091   8.5488100
  58.8387566  68.0469513   8.6086206  57.4428329  68.5974350   8.8069906
  51.0498962  11.0429010  52.8484917  51.0502319  10.1990728  53.3003616
  50.3531494  10.9653139  52.1967621  69.0943298  13.7776308  56.7740173
  69.4648514  14.5462799  57.2077484  69.6793823  13.6148548  56.0341187
   9.6556158  56.4805603  64.1369858   9.2999897  56.3032646  63.2661629
   9.3809242  55.7309418  64.6650467  71.0440063  57.5248528  53.7630005
  71.5871735  58.1384010  53.2682762  71.4380035  56.6684570  53.5969086
  48.7434311  33.7282143  67.6726456  48.0336151  33.3282127  67.1702576
  49.3638649  34.0323563  67.0102386   4.6910667  35.1621933  28.5444965
   5.4665823  35.3984566  29.0534039   4.3808098  34.3495865  28.9440536
  47.3583450  55.4556847  44.9752159  46.5930824  55.3761673  45.5446777
  47.0951118  55.0297775  44.1594086   0.5899405  31.8354225  68.5924835
   0.7442868  32.7784500  68.5367508   1.3274407  31.4439430  68.1244354
  59.9369431  27.5208149  30.1394691  59.0992470  27.6059170  29.6842194
  59.7926636  26.8224640  30.7779999  39.1666298   0.2003693  33.9769554
  38.8494949  -0.2120990  33.1735077  38.5445023   0.9082795  34.1444435
  80.1523285  46.0542374  14.0334120  80.4606476  45.1697502  14.2305336
  79.6967697  45.9680061  13.1959982  78.1954041  13.5067730  78.5457230
  77.6803589  12.7420187  78.8028488  79.0446548  13.1480274  78.2882080
  54.8658714  43.3002434  65.3168945  54.7300453  42.3527565  65.3242645
  55.4924889  43.4468727  64.6083221  30.9331207  37.1487999  79.6066284
  31.6125851  36.5161858  79.8397675  30.3671055  37.1873970  80.3775864
  72.1228256  10.4856453  44.3508568  72.6909790  11.2545214  44.3984451
  71.2909393  10.7791862  44.7223892  70.6310425  62.2821541   0.7041050
  69.8348389  61.9094543   0.3254423  70.9343262  62.9128647   0.0510681
  19.1834869  33.1215591  68.0240250  18.5681534  32.4654083  67.6968231
  19.3542957  32.8596306  68.9287109  77.9295273  51.1054382  45.0855026
  77.5176849  51.6943207  44.4531784  78.2189331  50.3574677  44.5629959
  21.2003098  56.4042435  48.7350578  20.6934338  56.9546890  48.1381302
  20.9926414  56.7415085  49.6064682  28.2741222  54.5921288  57.2123451
  28.6731319  54.2774353  58.0235138  28.9981346  54.6272507  56.5872002
  24.8884563   5.6584010  78.1350708  24.6259689   5.9126058  79.0197754
  24.1848698   5.0844650  77.8320923  49.3242531  31.2606812   6.9687433
  49.2288704  30.3493786   7.2456203  50.2215843  31.4913845   7.2091699
  54.7298431  64.8491364  26.0158253  54.0783539  64.1498871  25.9625111
  54.6388702  65.3247223  25.1901283  66.2250443  16.7161636  73.9302368
  67.0747223  17.1558495  73.8994217  66.1939011  16.1985321  73.1256790
  38.7927246  58.3799477  67.4966812  39.4131813  58.4219055  66.7690125
  38.1677704  59.0829659  67.3194046   7.0660682  44.1618500  86.2329483
   6.9488182  43.5876350  85.4761353   6.5814061  43.7316246  86.9373856
  16.4110813  64.5634232  75.0915985  16.2054787  64.9972916  75.9196777
  16.1493740  65.1931000  74.4198456   2.0579469  19.7796688  73.4643631
   2.3222563  19.0534897  72.8995285   1.5120409  19.3731823  74.1374054
  65.2978287  10.8827028  50.8130074  64.7523499  11.6641026  50.9029694
  66.1178818  11.2048435  50.4388733  42.7936363  57.0908356  49.9690666
  42.9705200  56.8953400  49.0488930  42.9933434  56.2758980  50.4297447
  66.1299210   4.7134447  83.0703506  66.1272964   5.2591405  82.2839432
  67.0315628   4.7565951  83.3888168  10.3266335   3.4211221  67.3067093
  10.6110592   3.4918816  66.3954849  10.9486151   3.9610755  67.7943802
  85.1045837  39.5789909  17.0702915  84.6314774  40.1658669  16.4803925
  85.3133011  38.8155174  16.5319824  33.5892410  25.2380466   6.6637020
  33.4034805  24.3630753   7.0045104  33.2749405  25.8322315   7.3451648
  66.6434097   8.6998711  73.8339310  66.9565353   9.2416315  73.1095886
  65.6928940   8.6779737  73.7231674  27.9270172  46.5859566  19.3978825
  28.2556057  46.6700935  20.2929707  28.2038517  47.3931465  18.9642467
  28.2538013  42.8136024  61.2024040  27.8048286  43.2589874  60.4838715
  27.5602074  42.3392677  61.6608429  31.5813198  20.7579918  66.5346756
  32.4036674  21.0792503  66.1648407  31.8496380  20.1350060  67.2100449
  55.4155197  29.3709545  36.2275925  54.7080727  28.8210182  35.8909645
  55.7400360  28.9003963  36.9953804  26.9073391  28.6303940  87.4776077
  26.9428806  27.6828918  87.6087875  27.3435287  28.7724056  86.6374893
  38.6469803  62.7286148   5.9564958  38.9088554  62.2776031   6.7591414
  39.4526634  63.1337967   5.6356707  24.9977303  37.2792091  71.4037323
  24.8668137  38.1615715  71.7509079  25.3828011  37.4170227  70.5383148
   2.4551146  42.3678513  54.3673286   1.7705078  41.7440414  54.1256561
   2.3035078  43.1222954  53.7980652   9.3460541   8.6865788  15.0351677
   9.9900303   8.2816801  15.6161871   8.5800419   8.8314638  15.5905638
  28.6537743  12.1400557  14.6703081  29.5944710  12.2388687  14.5234861
  28.4364834  12.8261805  15.3013783  45.7592773   8.2081509  74.6246185
  45.5758362   8.9907303  75.1443787  45.8211479   7.5022807  75.2681656
  14.3504610  32.5895157  10.8092155  13.9376144  31.8335648  11.2267408
  13.6807604  33.2729263  10.8352795  60.3762932  67.8273849  31.1335201
  59.5338669  67.3999939  30.9789848  60.6757927  67.4710464  31.9699135
  74.9725113  44.7711449  85.5923538  75.2532196  45.6854782  85.6302185
  74.1479340  44.7534409  86.0781403  15.5358286   3.2948723  61.7566872
  15.6998634   4.0170021  61.1501770  16.1654434   2.6204002  61.5019226
  26.7637043  66.0348511  38.9860268  26.2955284  66.1975403  38.1671410
  26.1443863  65.5389862  39.5215530  66.9512558  40.0691948  63.1724358
  66.7445450  39.2573090  62.7094574  66.1632614  40.2626076  63.6802635
  44.2114220  38.9234467  76.0212097  43.4218102  38.9059143  75.4804306
  44.5112190  38.0145416  76.0368729  60.6108742  11.7192640  10.0448980
  60.3330841  12.1572609   9.2403955  59.8237457  11.6961479  10.5890751
  42.1098900  55.5062981  88.9211349  41.3225365  55.5756226  89.4610367
  41.8016396  55.1344910  88.0947113  48.5574760  60.7381706  22.8616619
  49.3723831  61.2399025  22.8411732  47.8921318  61.3489304  22.5446129
  19.9896927  29.6279869  11.2399454  20.4293537  30.3964500  10.8760862
  19.8242359  29.8573093  12.1544228   6.7767620  43.8974495  27.1001911
   7.5857010  43.4539337  26.8449554   6.1896248  43.1900444  27.3667965
  76.1318283  53.4154243  22.6350670  76.5465240  53.4233932  23.4977360
  76.5725861  52.7083015  22.1639633   2.1646636  68.4350815  81.4484406
   2.4252264  69.3262482  81.2157211   2.3447642  68.3700714  82.3862991
  25.3808498  51.2290802   2.3942459  25.1687546  50.5100136   2.9893858
  24.5335274  51.6172218   2.1760170  69.8895798  38.4491501   4.0175071
  69.0736694  38.0143127   4.2653685  70.5445557  37.7511597   4.0240912
  54.9724007  24.5105267  50.7744789  54.1656761  24.3607807  51.2674332
  54.7908020  25.2896385  50.2488937  68.1092300  38.6469994  16.2754726
  69.0419769  38.4969902  16.4294548  67.6677399  38.0678520  16.8966923
  59.0835838  66.5805511  60.8317261  58.5431023  66.0833664  61.4456635
  58.4540062  67.0431671  60.2786865  66.8233871   8.9800987  85.3647842
  66.0310287   9.3572083  84.9824295  67.5325394   9.5376930  85.0447540
  63.8145866  16.3706207  62.0137558  63.3328629  17.1649456  61.7830696
  63.6575737  15.7741842  61.2817421  68.3250427  22.9916573  85.8843002
  67.4515915  23.2794132  86.1498260  68.9069901  23.3363953  86.5615997
  38.5621681  67.6796875  66.4592209  39.2149010  67.3358307  65.8493576
  39.0681877  68.1996994  67.0835266  27.4554443  65.6827087  71.3860092
  27.2661762  64.8423691  70.9685974  28.0691662  65.4683151  72.0885849
  53.8714027  21.4614716  22.2561550  53.3172073  21.9380035  22.8742313
  53.2560501  21.0630341  21.6406708  76.9054337  52.3720894  87.5756302
  76.7572021  52.7457542  86.7069321  77.8360977  52.5194244  87.7441177
  28.1679821  53.3882790  83.9640274  28.6418934  52.5734024  83.7978439
  28.6211395  53.7810135  84.7101059  32.4219131   4.4781613  81.0348816
  31.7257996   4.1999307  81.6300659  33.2321930   4.2669334  81.4986267
  57.9193420  42.2204590  78.7505264  57.3398743  42.2450638  79.5120010
  57.3423119  42.0070305  78.0172348  60.7145462   7.9262838  16.9212532
  60.7468414   7.2699451  17.6172466  61.4583435   8.5016699  17.0999451
   3.3301904  50.0209465  79.5163803   3.4876432  50.9289780  79.2576828
   4.0572815  49.5324402  79.1304626  45.6217499  41.7004776  18.7905102
  45.5896873  40.7459297  18.8540630  45.6861496  41.8759918  17.8517456
  36.4444237  57.8002281   7.8592696  36.7703819  57.2967873   7.1132593
  37.0919724  58.4945717   7.9809461  71.5323563  32.4392738  46.7284851
  70.7030029  32.6097031  46.2819939  71.2947388  32.3574562  47.6521072
  26.4315205   4.7534618   1.1006651  25.6065941   4.5230246   0.6733146
  26.1741924   5.3185430   1.8291554  40.2876472  66.8822250  19.4057541
  40.6652031  67.4759369  20.0547466  40.8616142  66.1163177  19.4192562
  56.7692604  22.5312271  80.3630753  55.9388580  22.6111507  80.8324127
  57.3958282  23.0155735  80.9007187   0.1687813  36.9972954  37.9292488
   0.9748383  36.7597351  37.4709167  -0.4852655  36.3817558  37.5982437
  45.4782677  65.4269867  84.1372910  46.0450745  66.0386200  83.6673203
  45.7124901  64.5669785  83.7883530  81.4004669  70.2632828  12.9436293
  80.7489166  70.9483948  13.0930719  80.8851242  69.4681320  12.8080292
  58.2975197  11.5230837   6.8052645  57.9025879  10.9545937   7.4663863
  57.6687202  11.5239019   6.0835710  39.8645134  59.0479927   4.0758810
  39.5051956  59.2066116   3.2029762  39.2273026  59.4411049   4.6722527
  61.7759628  67.4216690  20.5565681  61.7591705  68.3322601  20.2619781
  62.5662918  67.0559387  20.1592655  61.4295616   4.0593753  67.8331833
  60.7866516   3.4241784  67.5178757  61.3256912   4.8134975  67.2528915
  39.1177139  32.7277870  83.1917419  38.5770760  32.7458572  82.4020538
  39.9744301  32.4271126  82.8886566  52.1432419  65.0680618  13.5727739
  51.4072495  65.3577576  13.0336761  52.9198723  65.3207092  13.0735283
  27.3373241  24.1643696  11.7837076  27.5611038  23.6956272  12.5877190
  28.1823292  24.4006271  11.4011106  84.1105576   4.7845011  37.2125969
  84.5341187   4.4815111  36.4094620  83.8783035   5.6953530  37.0319405
  29.3947487  68.8936615  34.7016602  29.5877457  69.7375793  35.1100540
  30.1697521  68.6999512  34.1743279  36.6433334  49.5280991  79.2514114
  35.9798241  50.1598206  79.5287552  36.4231262  49.3338737  78.3403549
  61.3752174  12.3070335  21.0719376  61.4316101  11.4403620  21.4743462
  62.0655174  12.3085880  20.4088287  39.2691460  44.9134560   6.6460972
  39.6519318  44.1519623   7.0818009  39.2971382  45.6062050   7.3060575
  75.3520432  67.9380569  21.9921036  76.1918945  68.3276749  22.2351799
  75.5798111  67.0762711  21.6432896   5.7369080  53.0623283  45.0405960
   5.7225814  53.6287613  45.8120766   5.9350801  53.6526871  44.3136597
  37.3820610  27.4249840  81.0371475  37.7733498  26.7209682  81.5543442
  38.0845070  27.7126465  80.4540100  71.0509415  50.2399559   0.4338565
  70.6424561  51.0446663   0.1147698  70.4092865  49.5549164   0.2461456
  65.8802872  45.6257133  61.4852448  65.4409714  45.2966003  62.2694092
  66.2693939  44.8483391  61.0846062  38.5545578  12.8356028  85.2467194
  37.7768250  12.2965841  85.3910294  39.1246643  12.6372223  85.9895935
  71.4939270   6.1395617  82.6688461  71.3978577   5.1873517  82.6861191
  70.6433105   6.4713635  82.9562378  47.9101028  60.9346352  11.7869558
  48.3978844  61.2136421  12.5618486  48.3834000  61.3254356  11.0524521
  20.0796642  47.8880348  82.5032654  20.1744366  47.3560219  83.2933350
  19.1915283  48.2409248  82.5572433   1.4612249  15.6653719  79.1695557
   2.0445926  15.4166660  79.8865280   2.0123031  16.1800671  78.5799484
  76.0698242  69.9708633  11.1615314  76.9787292  69.8208008  10.9015398
  75.5517654  69.5597076  10.4695749  13.0111790  70.6158295  11.5307875
  13.4062948  69.7474747  11.6086779  12.2734385  70.5988541  12.1404438
  51.4231415  53.3019981  39.0299377  51.1865578  53.5592461  38.1388245
  51.0509567  53.9880333  39.5840683  60.7463264   8.2599287  70.8163452
  60.3562508   9.0108166  70.3688660  60.0228806   7.6422615  70.9228592
  39.6200104  41.5070457  77.8261337  39.1411057  42.0586052  78.4447327
  40.4640465  41.9454079  77.7181015  76.6870117  56.0822868  22.1912689
  76.4706650  55.1589203  22.0615635  76.4686966  56.2530251  23.1074696
  21.3695698  39.4731865  61.4944611  20.5090103  39.0637970  61.4046364
  21.6066875  39.7302589  60.6034393  35.2023087  45.0456314  51.5294724
  34.6977921  44.2351990  51.4595070  34.9757347  45.5376930  50.7403145
  45.6887627  17.3837337   8.1472492  46.3133354  17.0560188   8.7943516
  45.5750237  18.3075390   8.3705864  76.7895889  44.7430725  39.2891350
  76.8020325  43.7871590  39.3371620  75.9591217  44.9924622  39.6945572
  52.5052147  51.6616020  41.2536316  52.0689087  51.8832855  40.4309998
  51.7943153  51.5932846  41.8909569  79.6846466  58.0959015  59.7406197
  79.5037003  58.9502335  60.1325531  80.4328308  57.7596817  60.2339783
   8.9371567  36.3571587  72.4884796   9.1417713  37.2914276  72.5272446
   9.6495266  35.9357986  72.9693298  80.6105728  71.0148544  68.2443008
  80.0537491  70.5045776  67.6562500  81.4981918  70.7072525  68.0606079
  50.8199692  23.6169605  73.1300964  50.1863327  24.2995110  73.3511505
  51.0935783  23.8244400  72.2366104  62.8563385  62.2803459  78.7473145
  62.9762383  61.7177277  77.9822617  63.7343140  62.6066246  78.9446335
  63.4035454  59.3286438   0.1631079  63.2901955  58.9828072   1.0484219
  63.5338554  60.2686691   0.2880394  52.9284973   0.2371676  22.7986908
  52.9275284  -0.6628204  22.4727287  53.2228432   0.7613650  22.0538368
   0.5175629  65.9547653  72.5749664   0.1886765  65.1438065  72.1871262
   0.0475482  66.6489944  72.1130600  84.7523193  48.7808266  29.3013992
  85.6321564  49.1550064  29.3472042  84.1782608  49.4795380  29.6152344
  36.9561005  46.0386124  33.1304779  36.5141449  45.3071251  33.5615654
  37.8631783  45.7480431  33.0355568  16.6583214  66.2502213  23.5013714
  16.0395317  66.4386520  24.2069397  16.1086979  66.1258698  22.7276268
  63.2671661   8.1180811   5.4897370  64.1727676   7.9477096   5.2307277
  63.1173210   9.0324507   5.2495122  20.8714886  13.4957466  83.1448441
  20.0459137  13.0343599  82.9972534  21.5251408  12.8001528  83.2163849
  86.2223282  60.3624344  18.4182701  87.1237411  60.4852486  18.7159233
  85.6970139  60.4164391  19.2166176  21.4291878  43.0075760   1.1477945
  21.2486019  43.7223969   0.5373426  20.9253273  42.2685165   0.8069919
  57.0712318  70.5742950  85.0310287  56.5213394  70.9302979  85.7289658
  57.4025230  69.7488022  85.3846359  52.1494827  20.9486198  37.6298599
  52.4020767  20.7762451  38.5368958  51.5421867  21.6863346  37.6864166
   1.8655840  32.3653145  34.4461823   1.1905062  32.0504570  33.8450470
   2.5749784  31.7278442  34.3647995  50.8711395  15.1944542   1.5766232
  51.5648193  14.5382500   1.6432427  50.0655632  14.7107859   1.7592310
  67.9466400  25.6854420  59.9833374  68.1712036  26.6008682  60.1500587
  67.2033310  25.7269230  59.3816643  12.5655966   8.2778282  26.4447517
  12.9697552   8.9159441  27.0327110  13.2803402   7.9883790  25.8776588
  54.7600098  66.6344528  66.9282455  55.0271835  65.7647400  66.6308517
  54.7833862  66.5785828  67.8835297  21.8149719  49.2255898  51.7480392
  21.3451176  50.0150414  51.4792671  22.3400669  49.5032501  52.4986458
  23.7314587  52.5118713  79.3992767  23.3728218  53.2950668  79.8166656
  24.6222363  52.7592583  79.1511917   6.4129777  44.7868309  51.3442039
   6.2524214  43.9474678  51.7753868   6.9127479  44.5613174  50.5596008
  27.5436974  68.3606186   3.8435054  27.7293282  68.8278656   4.6580315
  27.2297726  67.5017090   4.1262889  67.7043762  58.6496620  45.4935036
  67.1248779  59.2650604  45.9426079  67.2027588  58.3612213  44.7309990
  18.2537766  69.5430603  86.6186905  18.8607044  68.8542175  86.3478165
  17.4486332  69.3563309  86.1358719  60.0514107  24.9771156  18.2536087
  59.2857704  24.7818432  17.7133369  60.0492935  24.2967148  18.9268703
  31.6698418  60.5963097  88.9007568  32.1455994  61.2495537  89.4137497
  30.9209347  61.0724525  88.5420685  54.0542259  11.6936121  81.7782059
  54.2342758  10.8764887  82.2430954  53.2649918  11.5103168  81.2685547
  21.8619232  32.2984238  30.0468407  21.1961136  32.9570732  30.2446041
  21.4969597  31.8011971  29.3148575  64.7163315  16.1314678  27.0077515
  65.4718704  16.4705982  26.5277672  64.0193253  16.7645092  26.8355064
  46.7484245  57.7482796  48.9768410  46.0055389  58.3020325  48.7366066
  47.5032120  58.1676178  48.5637054  27.3841763  40.6225777  36.1406059
  26.8860493  41.1673508  36.7499695  27.1399117  39.7251816  36.3669777
  35.3141251   8.2536144  37.8429947  35.4779701   8.0828686  38.7704849
  35.0609055   7.4031901  37.4839859  18.5429020  70.6445084  57.6732140
  19.0118465  71.4116898  57.3449631  18.4757957  70.0627365  56.9160690
  67.4767685  37.9954453  48.2268486  68.1809616  37.4202118  48.5259361
  67.3321609  37.7428474  47.3149719  35.8767624  26.2799206   5.2472734
  35.0454140  25.9100418   5.5443864  35.8114243  27.2123356   5.4535909
  74.8330917   9.6358786  55.9855156  74.8157196   9.8731499  56.9126816
  75.6690445   9.9762259  55.6668129  64.9884186   8.9877281  55.7713928
  65.3960571   9.6336937  56.3482704  65.4222946   8.1631718  55.9906921
  62.0175705  35.1108170  19.9994965  62.8687744  34.9161568  19.6073265
  62.0647926  36.0397568  20.2254925  41.9432755   9.7379341  74.3615646
  42.0504303   8.8536901  74.0110474  42.1176796   9.6470022  75.2983398
  74.6729431  17.4258709  38.4435616  75.4202042  17.9125290  38.0957108
  73.9096298  17.8365955  38.0375023  62.4301758  36.7562752  68.8379135
  62.5959244  37.3605347  68.1142883  62.1162529  37.3146973  69.5491409
   8.0672312   9.5506630   9.3518429   7.5106196  10.2486839   9.0066137
   8.7308674  10.0071726   9.8689661  27.4983597  41.6542473  31.9986229
  27.9435539  41.5574150  31.1568069  26.8747463  40.9285316  32.0246429
  27.5202026  56.1817436  78.2184067  28.3355751  55.7854385  78.5255508
  26.8520279  55.5180054  78.3893509  82.2768402  43.8004875  71.5644684
  82.5226974  44.6380768  71.1717453  82.7487106  43.7786140  72.3969879
  44.1395988   5.4237790  87.8967819  44.9766960   5.8817835  87.8210678
  43.7710190   5.7336311  88.7240524  11.4625034  44.2171478  77.1420975
  10.7059278  43.8689041  76.6703415  11.9429808  43.4410896  77.4303818
  67.3201828   9.6986685  30.6633530  67.8610687   8.9180231  30.7827969
  67.9410477  10.3852444  30.4196835  61.5490608   4.8091283  35.4898338
  60.8135414   5.3730803  35.7289925  61.2718849   4.3856378  34.6773949
  73.4609451  32.9983177  13.9031458  73.4729156  33.5467758  14.6875448
  72.5491638  32.7190819  13.8200245  82.4883270   4.8447137  85.7515488
  82.6696701   3.9126740  85.6305237  81.6782837   4.9963093  85.2646332
  36.6087990  26.5434151  70.2687912  35.7966805  26.9979038  70.0448761
  36.5082664  26.3145542  71.1927719  80.6113663  60.0873909   7.9226718
  80.3597641  60.9881821   7.7189488  80.4180374  59.9897499   8.8550463
  30.0558739   8.0113688   5.1753368  30.8470364   7.5261922   5.4096389
  29.8784389   8.5626192   5.9374862   8.6488724  58.8079834  65.5035324
   8.1759167  58.1979218  66.0695496   8.9989119  58.2604027  64.8007812
  68.2484665  31.1083393  11.5764027  68.3885651  31.7607841  10.8901682
  68.2347565  31.6143627  12.3887968  59.1410255  11.9731197  43.1012115
  59.6376991  12.6417074  43.5729523  59.8083000  11.4353647  42.6748314
  68.6944809  33.3010063  42.0155945  68.6917877  34.2378159  41.8190842
  68.0323868  32.9317894  41.4311790  48.0848083  68.5558701  56.4844284
  47.8872070  68.5310669  55.5481758  48.3154869  69.4687958  56.6564293
  52.3392715  22.9708538  68.1554794  52.9106941  22.2500210  68.4202576
  52.9077225  23.5553246  67.6539917  52.1339073  45.9459343  41.3401299
  52.3743439  46.8709679  41.2878799  51.6388664  45.7814331  40.5375671
  69.0059128  53.7652206  43.2414055  68.7325821  54.0194359  44.1228256
  69.9492874  53.6210175  43.3154373  31.1272831   4.9609418  13.0463114
  30.3388786   4.5250664  12.7227955  31.0645218   5.8532734  12.7056694
  53.6267052  32.2340164  49.7833290  53.7184372  32.6120338  50.6579285
  52.7675705  31.8120995  49.7936630  76.8844986  33.9268074  21.8819504
  77.7005005  33.6002960  21.5027905  77.0873566  34.8224678  22.1519051
   8.1522102  27.9412880  70.5754623   8.9619284  27.6507645  70.1557236
   7.9414515  28.7685452  70.1425018  84.4859161  14.0688753  28.8104019
  85.1181412  14.4042931  28.1747818  83.7606354  14.6927376  28.7788906
  53.9999733  45.5974350  36.4481659  54.2731590  46.3118629  37.0236664
  53.8176117  46.0216713  35.6097145  34.9457359  56.9334488  56.8835564
  34.2141533  57.4675980  57.1929207  34.7071037  56.6964417  55.9873886
  49.1647072  59.8616104  83.2561951  49.4373703  60.1807289  82.3959351
  49.7140350  59.0933304  83.4118118  41.3095245  17.4357281  87.1849823
  41.1235313  18.1862392  87.7492218  41.8534126  17.7928543  86.4829254
  78.4382019   8.4641876  57.0655594  78.9355774   8.0728521  56.3474312
  77.9600143   9.1872177  56.6596031  86.6045532  45.3505974  17.7277069
  86.4030380  46.2421227  17.4434395  86.3401031  45.3268967  18.6473446
  46.5635338   7.9600482  48.8848801  46.8621101   8.1226168  49.7796707
  47.1367188   8.4988155  48.3395157  83.0453873  26.4764690  51.0017700
  82.1571579  26.1284218  50.9233818  83.2797546  26.7376404  50.1112137
  19.6485424  56.8245735  24.8801174  20.5505562  57.1137047  24.7422466
  19.7296371  55.9140968  25.1641674  51.9634552  60.1636086  72.9580002
  51.7064629  60.7465820  73.6723709  52.3863564  59.4233932  73.3932724
   7.7908292  56.7959137  71.5698700   8.0248699  57.5287209  72.1394730
   8.3049126  56.9368477  70.7748337  75.7677689  21.1128025  75.3538208
  76.3320770  21.4700336  76.0395126  76.3117905  21.1232395  74.5663147
  63.2730026   8.1622896  38.6199112  63.1142502   7.2739925  38.9392204
  62.8200760   8.1984825  37.7774239  57.1385384  63.9829254   6.6754675
  57.9335785  63.9917183   6.1424894  57.4524918  63.8650360   7.5719976
  59.1190987  41.0703239  -0.0017466  58.8617821  41.8991623  -0.4055339
  58.9080505  41.1798973   0.9254443  42.8299294  61.6742668  37.6298561
  42.3286705  61.7338829  38.4431343  43.2959557  62.5084953  37.5740395
  53.9956589  62.0666924  28.9160194  54.1505013  61.2999077  28.3643856
  53.4118538  62.6206169  28.3977795  17.2440338  36.1856308  10.5381756
  17.1934776  35.9634972   9.6084814  16.3912449  36.5711746  10.7390289
  35.5362473  54.3190536  26.6727962  34.7774124  54.8297462  26.9549179
  35.2989388  53.9981384  25.8027802   2.2264733  20.4811554   6.0916719
   2.1020763  21.1352673   6.7793455   2.2976980  19.6502533   6.5615215
  58.7019501  32.4577942  30.6226425  59.0998611  31.6584492  30.2777576
  58.1650581  32.7881317  29.9023266  16.6406441  63.7101593  17.2584820
  15.7344227  63.6229744  16.9628601  17.0357914  62.8580742  17.0739861
  73.8147125  40.1168289  80.1344376  73.9837036  40.2384033  81.0687256
  74.1525192  40.9130325  79.7243423  61.8635368  44.2948151  28.4343967
  62.4314842  44.3146706  27.6641521  61.8900146  43.3841705  28.7280941
  62.1011505  20.2259598  50.0419769  61.6901436  19.3814487  49.8572998
  62.8758049  20.0071545  50.5599251  23.1601143  46.4714088  61.6679688
  22.2687626  46.2296295  61.4164429  23.5300121  45.6702156  62.0387688
  65.0976410  39.3759308  49.7128830  65.5622864  40.1074409  50.1193657
  65.7813492  38.7332115  49.5239716   6.0565529  53.9621506  48.3591003
   5.1068487  54.0788956  48.3333473   6.3482709  54.5289726  49.0731354
  62.5352554  45.1172600  24.7995529  61.6483192  45.1485977  24.4409599
  63.0183258  45.7768326  24.3017197  67.9673080  13.9799299   0.5918340
  68.7667084  14.4486628   0.8315887  68.1556778  13.0642958   0.7976629
  25.9116077  45.3692970  77.4748993  25.7596798  44.9178162  78.3051529
  26.7679348  45.7836876  77.5808105  70.9444046  66.5638504  58.0954247
  70.3172684  66.1818161  58.7094154  71.7739029  66.5698929  58.5730515
   8.1244869  32.9633369  80.6749115   8.0497408  32.4607010  81.4860840
   7.3663235  33.5475693  80.6844406  36.1542015  31.1338406   2.8852806
  36.6696396  30.5070438   3.3929029  35.8145981  31.7477207   3.5364754
  57.6671448  68.4496536  34.8001480  57.6370392  69.3723907  35.0529060
  57.3329620  67.9808273  35.5648422   4.4533725   4.2882919  67.1166992
   3.5056002   4.3565559  67.2320251   4.6409435   4.8295760  66.3498459
  20.9090252  50.3445091  17.5061283  20.6792793  49.6732597  18.1486816
  21.8090324  50.5867348  17.7241764  84.0345993  33.3240891  49.2973785
  84.1252213  32.5551224  49.8601456  83.7667770  32.9700394  48.4493523
  75.3687668   6.7139611  80.2631302  74.7616119   6.6378713  79.5270462
  74.9110947   7.2687879  80.8947449   6.8152547  54.1402092  71.4940262
   7.1155734  55.0435715  71.3941422   6.0548916  54.0753174  70.9162140
  15.7750072  51.7003784  47.7969627  16.1373329  51.0825653  47.1619339
  16.1865673  51.4596901  48.6269760  77.0996246   0.3868671  73.9713135
  76.8158951   1.1018206  73.4016037  77.3701630  -0.3062707  73.3691483
  25.3263206  23.3904552  17.3891010  25.5227318  24.0096798  16.6860962
  25.6889496  22.5588074  17.0839920  16.8594685  29.7820950  75.3394089
  16.8328552  30.1294079  76.2309799  16.5907917  30.5169296  74.7879944
  50.8576088  47.6407661  78.0117874  49.9033127  47.7054405  78.0488510
  51.0242195  46.8234024  77.5423279  19.2926311  37.3361664   7.4545026
  18.7252502  37.6798325   6.7644258  18.7889919  36.6220627   7.8451872
  52.8548584  54.0339622  27.0642452  52.7704926  54.1280174  26.1154194
  52.4390564  54.8190155  27.4206619  26.9129848  70.7156296  76.0317917
  26.8868027  71.1389389  75.1736832  26.0168686  70.4118500  76.1764450
  40.7692261  46.9011536  14.0748310  41.1937866  46.0434380  14.0573568
  39.8432426  46.7132111  13.9216442  82.8747482  21.7599316  76.6453323
  81.9339828  21.7282429  76.4715805  82.9764557  21.3272362  77.4930725
  38.7101097  46.5265884  66.0956879  38.7017632  47.3465538  65.6019058
  39.6225128  46.4177666  66.3638535   0.8976901  31.1694450  61.1046257
   0.7833282  30.2207508  61.1605873   0.0882126  31.4849854  60.7028656
  65.3234482  29.5772572   6.9714499  65.9623795  30.0379944   6.4276481
  64.8284073  29.0381165   6.3546090  79.7954941  63.9559364  63.2829628
  79.8614655  63.0359192  63.0271378  80.2801819  64.4281311  62.6059532
  67.5349960  29.1017799  59.0272751  67.8156738  29.5296268  59.8362236
  68.2409286  29.2785244  58.4054565  75.4741745  38.4450645  73.5278473
  75.6522598  39.3259125  73.1982651  74.8871765  38.0600090  72.8771591
  50.0300827  39.1183586   6.4486370  49.6681290  39.7863083   5.8663435
  50.9073219  38.9504242   6.1044254  66.4639053  36.5914459  51.0720901
  66.4853287  36.7226982  50.1241760  66.9475784  35.7774010  51.2121620
  74.0211868  31.6176014  11.6314259  74.9322739  31.9111195  11.6336718
  73.5333176  32.3479843  12.0118914  62.3438339  33.8573265   9.8185043
  61.4813957  33.8646774  10.2336903  62.9306221  33.5120468  10.4913292
  65.1886444  62.1937637  57.9504738  64.3221283  62.4520493  58.2645988
  65.1646957  62.3697166  57.0098877  69.8082581  44.0533562  68.3183289
  69.4064484  44.8841858  68.0643539  69.6454010  43.4716721  67.5757980
  56.6371803  27.4790974  87.0742035  57.3829765  27.3132362  86.4975662
  56.0085526  26.7907944  86.8567276   6.9511447  34.1772537  71.1959610
   7.6557522  34.5951691  71.6910400   6.9881272  34.5890350  70.3326569
  22.1198101  68.8932419  42.1789513  22.0055027  69.8423004  42.2284050
  21.2500286  68.5374298  42.3609276  64.3637924  21.2440109  41.9956284
  63.9318886  22.0610714  42.2448311  65.2985153  21.4309769  42.0826492
  82.6405411   4.8822722  16.7698574  83.0462646   4.3746533  16.0670490
  82.0874405   5.5188432  16.3169861  68.8712387  13.0605478  75.7232285
  69.5187988  12.4250288  76.0282211  68.9375229  13.7865267  76.3435516
   6.1322184   7.9964805  65.7107391   6.5180812   8.6895151  66.2465057
   5.3467946   7.7325010  66.1899643  17.3601170  25.3722591  83.9202499
  18.2512627  25.5933876  84.1907883  17.4681911  24.9302330  83.0781326
  24.0101738   2.6647203   3.5643942  24.6914806   3.1671288   4.0112047
  23.2809277   2.6461504   4.1841412  12.8706026  38.2015457  79.4357452
  13.2578030  39.0042610  79.0865250  12.6248932  38.4250145  80.3334732
  18.8279190  28.5980778  84.8349228  18.7509480  29.4196758  84.3498611
  18.0225983  28.5475883  85.3498383  31.9991512   0.8185216  17.0047245
  32.5344543   0.1924578  16.5171528  32.0303040   1.6191719  16.4810638
  63.2939911  66.5847702  81.6926575  63.0761223  67.4958420  81.4959030
  62.8653679  66.4116440  82.5308380  48.8941078  58.7651482   5.6946821
  48.8186646  58.7885895   4.7407479  49.0817261  57.8487244   5.8976550
  82.6272430   0.5146682  38.3685493  82.1890945   1.0621117  37.7169609
  82.1289597  -0.3026106  38.3688087  84.4888306  66.7962875  87.9273529
  84.7756882  65.9899597  88.3560715  84.1594162  66.5103989  87.0753098
   1.5507764  42.2166328  74.7988892   1.0286573  42.2509384  75.6004181
   1.7733768  41.2912178  74.6974716   3.1598341   4.7781153  84.6778717
   3.6293485   4.0392280  85.0649567   2.4519858   4.9621048  85.2953949
  81.3200607  64.0365753  34.2708740  80.5783463  64.1820984  33.6835861
  81.1361160  63.1932259  34.6845894  32.4053688  67.7697296  51.2234154
  32.1298599  68.6067810  51.5971298  32.6057243  67.9699936  50.3090935
  16.5472069   1.5861897  23.0667934  15.6702099   1.5687290  23.4499435
  16.6646309   0.7110105  22.6973267  36.9016876  62.6678123  77.0036697
  36.1909103  62.7430763  76.3669891  37.5343704  63.3344650  76.7362518
  18.8108101   1.9960587  81.7865448  18.2097225   2.6746910  81.4793243
  19.1223869   2.3172603  82.6326981  68.5630188  34.1547394  37.9644356
  69.0273819  33.9012871  37.1667099  69.2462616  34.2077026  38.6327209
  48.8869743  35.7226257   6.0115585  48.9815712  36.2635193   6.7955976
  48.0566177  35.2630959   6.1363568  28.5183792   0.9064994  33.8321991
  29.1235905   0.6582916  34.5310173  28.2498322   0.0750124  33.4413757
  12.0481243  62.2584572   9.9276400  11.2999897  62.7190742  10.3075838
  11.7867918  61.3376236   9.9260101  14.5551090  45.9448013  16.0404968
  13.7532101  46.4358101  16.2196655  14.7430887  45.4860954  16.8593273
   5.0711250  19.5550938  85.2851181   4.3739133  19.3936081  85.9207611
   5.1702757  20.5070915  85.2750473   5.1052403  56.7574844  30.2887039
   4.7705655  55.9037094  30.0143089   5.8923736  56.8874474  29.7597790
  71.1455078  21.8295422  31.8869228  71.9786377  22.3006363  31.8730831
  70.7700348  21.9814301  31.0196381  58.8329620   3.7964256  86.1947784
  59.1270943   3.5768082  87.0787964  58.0394783   4.3148832  86.3282547
  35.9344025  19.3644047   7.7627840  35.9454460  19.1411343   6.8320532
  36.8512955  19.3119202   8.0325747  15.5716667  13.5956211  88.3246002
  15.2912350  12.7059450  88.5392303  16.4278908  13.4837799  87.9115601
  23.6470394  37.9325676  17.7550430  24.2981396  38.2369156  17.1228466
  23.1962109  37.2159805  17.3084011  64.1947021  29.7022820  64.8388977
  63.8658638  29.2697220  65.6269226  64.7327576  30.4223957  65.1677704
  29.0057735  60.1485481  12.8397102  29.7791576  60.5999527  12.5015621
  28.3174877  60.3434639  12.2037039  12.6231880   8.7204838   6.5425854
  13.1486187   8.1354866   5.9967532  13.1488752   8.8476629   7.3323388
  68.4466553  41.5692482  37.2062874  68.6030273  41.0746841  38.0107689
  68.6562653  42.4742851  37.4369507  13.6800756  36.5644608  75.8828735
  13.5777378  36.8592186  74.9779587  12.9175301  36.0079575  76.0411911
  70.3970337  29.5390549  14.1669474  69.5905914  29.0535278  13.9932957
  71.0895233  28.8804741  14.1126156   4.4131207  51.5113258  19.1758709
   3.6201754  51.0412674  19.4337730   4.1013908  52.2079048  18.5980873
  65.5357513  28.8809128  47.4110222  65.7148438  29.7980671  47.2036896
  64.6003113  28.8592186  47.6127815  80.5281067  32.3902321   3.4026229
  80.8244629  32.0877037   2.5442057  80.4543304  31.5919151   3.9255743
   2.1222522  18.1398373  82.8003235   1.1836699  18.3020191  82.7054977
   2.2094326  17.7354946  83.6635361  47.4779472  35.5491600  13.5125790
  47.3195572  34.7951584  14.0805836  46.6650887  35.6510010  13.0174799
   7.5834222   1.9876171  19.4440556   6.8828874   2.6397843  19.4567337
   7.1797795   1.1956009  19.7990417  28.8041763   0.6531271  71.5549393
  28.5619221   0.8150980  70.6431808  29.3559227  -0.1283167  71.5209656
  78.2579575  50.1395302  65.7399139  78.7730255  49.6020546  65.1381989
  77.4650192  49.6276321  65.8994141   9.9904127   2.2514307  61.2794037
  10.8139372   2.6860085  61.0576324   9.9420834   1.5084724  60.6778145
  64.8106003  64.6509933  52.0511894  64.0295258  64.0986786  52.0845566
  64.6689224  65.3076401  52.7330780  34.0716667  53.9858246  83.2785950
  34.3849640  53.8102608  82.3913193  33.1782227  54.3074074  83.1578751
  76.9115295  10.0360966  39.1128654  76.0840454   9.9213409  39.5801315
  76.7238312  10.7045946  38.4539948  13.4023781  17.1757927   6.5389891
  12.8544779  17.5342407   7.2372389  14.0714550  17.8444366   6.3924131
  22.6656647  65.4191284  28.3526821  22.6295834  65.2361374  29.2915325
  23.5301991  65.1104279  28.0815449  21.2729092  19.5199280  16.5587406
  22.0470009  19.3463097  17.0943432  21.2929497  18.8429852  15.8822966
  85.0752487  48.6593513  58.1051025  84.6662750  49.3717422  57.6137085
  84.3763504  48.0154495  58.2198410  39.7603989  46.5673523   8.9894495
  40.0933418  46.8273354   9.8483953  39.9204102  47.3276672   8.4303865
  12.3689661  24.6197033  73.2765045  12.9260159  25.1749096  73.8220978
  12.9034052  23.8459034  73.0980759   8.0791779  19.7026825  11.2328758
   8.9012365  19.6659050  10.7438984   8.1492519  20.4988079  11.7596645
  48.4863129  60.2986298  43.6437302  48.1651802  61.1460075  43.9520416
  48.9066772  59.9085388  44.4101219  57.4294319  30.0533276   2.3045158
  58.1159363  30.4364605   1.7584829  57.4306145  30.5861340   3.0997190
  70.2546844  31.7983456  26.5388584  69.3564987  32.0244370  26.7804832
  70.3422394  32.0988770  25.6342888  71.3207092   5.7815614  70.8065186
  72.0646896   5.3633537  70.3731232  70.6055374   5.1519108  70.7154083
  16.9735470  38.2494087  43.9147530  16.6245079  37.3619308  43.8323975
  16.3550110  38.7959785  43.4300804  27.4274750  10.8618526  66.6719666
  27.9492111  10.7868328  67.4709625  27.8266106  10.2377605  66.0658035
  34.9199562  36.5917854  12.6250076  35.8712273  36.5013084  12.5690603
  34.6910934  36.1986542  13.4672079   9.6806173  70.3091583  79.5326538
  10.3845272  70.3042145  80.1812820   9.0703430  70.9764328  79.8465729
  52.6770172  56.9660110  44.0739899  52.9834251  57.3659821  44.8878517
  52.2073059  56.1807671  44.3550415  39.5194016   0.5078006  62.0251236
  39.5928726   0.5781192  62.9769020  39.6782608   1.3962688  61.7063446
  82.8298111  37.4552574  84.8247604  82.5914459  37.7996140  85.6854782
  83.0521011  38.2308197  84.3096695  46.0368958  39.2457237  20.7996159
  45.8600273  39.6064377  21.6684284  45.3458862  38.5973282  20.6642647
  50.0195503  64.8004761  86.7384872  49.3303871  64.6381760  87.3826447
  50.4347191  65.6117783  87.0311584  44.2442894  52.4288750  67.0787659
  44.3378067  53.3306923  66.7718201  45.1317406  52.0716362  67.0464783
  53.3688545  14.9734058  69.6304779  52.5758858  15.5000162  69.7310486
  53.3229027  14.3332405  70.3406219   0.7702289  25.2388515   3.3410697
  -0.1403300  25.5305862   3.2962956   0.7392430  24.3170128   3.0851655
   5.2424431  70.7485046  -0.0957778   5.2523599  71.0190353   0.8223437
   5.6685953  71.4677124  -0.5620053  85.0787125  44.1409111  29.0276375
  84.7581787  43.5645447  29.7213860  84.6241150  43.8430786  28.2396870
  73.5075607  55.5788307  55.5388374  73.9332275  54.7588806  55.2884026
  73.8668900  56.2292633  54.9354744  70.5535507  55.9524269  28.1080208
  71.0440445  56.2941170  27.3604259  70.9359360  56.3929825  28.8669205
  61.0676193  63.9342880  29.6771202  61.8512497  63.7175446  29.1719685
  60.7145348  64.7140274  29.2486706  45.1167755  56.8056984  55.5392914
  45.7282982  57.1796074  54.9048882  45.1156197  55.8680305  55.3469009
  75.7400284   5.6336298   8.5819511  75.7801743   6.5787783   8.7279472
  75.3152237   5.5408287   7.7292142  33.2403870  67.7978821  10.7883978
  34.0945549  67.8934479  10.3670940  33.2478065  66.9101181  11.1462364
  72.0854874  61.8807297  63.9997826  71.5572586  61.6214218  63.2448235
  71.6955872  62.7041206  64.2934494  25.9756222   8.4360418  81.3692932
  26.5945053   8.0851765  82.0096970  26.5233803   8.9002180  80.7362595
  47.2302017   0.3378032  36.6921654  47.4957657   0.3166519  37.6115456
  46.6388626   1.0879964  36.6308670  35.4763107  36.8499413  53.0489120
  35.5242805  36.4136963  52.1982498  36.3578644  36.7644958  53.4119453
  18.8456020  12.9387989  18.9010925  19.5867119  13.0093107  19.5027695
  18.0844402  13.1789808  19.4294643  81.9667282  16.9599323  75.3357849
  81.9930573  16.5980854  74.4500046  81.5862503  17.8315334  75.2272415
  75.6633224  47.4690361  45.8450317  74.7314835  47.3867836  45.6421967
  76.1079865  47.2050056  45.0395584  49.4320641  64.5148468  67.4068527
  49.1815300  65.3830414  67.0911026  50.0979347  64.2174454  66.7868500
  59.9715843  25.0034447  31.2544632  59.9347687  24.5513229  30.4115753
  60.6158180  24.5105915  31.7626858  80.4139709   2.3995957  52.2643394
  80.2638245   2.0751402  53.1522675  79.6968155   3.0143688  52.1095123
  35.1692619  62.7778625  26.8601379  35.9464569  62.3389969  27.2059708
  35.3589096  62.9034157  25.9303513  75.3524323  41.0553818  50.5318413
  74.8060532  41.3717232  49.8123779  75.5410156  41.8371353  51.0510063
  51.5294647  65.3454742  74.5429306  51.4897346  65.2669830  75.4960785
  50.6141243  65.4034195  74.2690201  63.9746437  43.5707054  77.6686020
  63.8630638  44.3737869  78.1773682  63.3660583  43.6649094  76.9358063
  41.7264862   5.1393037  68.2664948  41.6009026   5.4779201  67.3800354
  41.1179199   5.6454840  68.8046875  47.2578392  71.5264664  22.1183205
  47.4823647  71.1353989  21.2739925  48.1024590  71.7277832  22.5212097
  58.2995033  69.5614624  45.9248962  58.2495804  69.9975739  45.0742836
  59.2327576  69.5575485  46.1376381   0.2617338  70.3842163  56.5633965
   0.7744679  70.2072296  55.7747192  -0.6290450  70.1189804  56.3344917
  58.0989799  41.0006371   2.4932880  57.7469025  41.6552963   3.0963590
  57.3267403  40.6228523   2.0723913  53.2695312  52.0577087  60.6763458
  53.9528313  51.6951218  61.2401352  53.7084122  52.2181244  59.8409500
  64.3743057  40.4779625  11.7610083  63.8214607  40.1422844  11.0553808
  64.9921646  39.7689095  11.9391403  48.4078522  47.7988434   2.9488523
  49.3575783  47.6842613   2.9154108  48.0651054  46.9167747   3.0927660
  45.9297905  57.7430687  58.0457954  45.5798454  57.5342026  57.1796875
  46.1262741  58.6790161  58.0054016  52.4242210   5.9154510  18.4336071
  52.8250885   6.6586523  18.8843689  52.2407074   6.2405424  17.5522041
  74.8804474  55.4930573  60.3246956  74.4229965  56.0777779  60.9289093
  74.2142410  55.2401695  59.6856003  81.9257507  48.2472572  74.0069809
  81.1832733  48.3531265  73.4122162  82.6712799  48.0766563  73.4313889
  19.7924500  40.6138725   0.6551861  20.3407383  39.8433762   0.8033257
  19.3370533  40.4294205  -0.1662895  13.3734417  61.0328712  79.5061951
  13.5124865  61.6612892  80.2147064  13.4903469  61.5446205  78.7057724
  42.7846336  70.2198029  33.0379906  42.1421394  69.6555862  33.4682121
  43.5892067  69.7013779  33.0267563   6.7312412  40.5683098  26.2719212
   7.0058846  40.2755051  25.4029751   6.7882118  39.7842102  26.8179779
  14.4017658  40.7589340  70.8380051  14.1928759  39.8915672  70.4912033
  15.3369436  40.7180634  71.0380173  44.6636238  71.4553528  38.1440239
  44.2322807  71.8952255  37.4114342  45.0799294  70.6881485  37.7511940
  34.4237022   6.0242105  87.2049866  33.5816345   5.7881651  86.8158264
  34.5897141   5.3378592  87.8511963  13.1886587  35.6716003  31.1886845
  12.4481401  36.2590103  31.0376453  13.8058701  35.8789902  30.4870644
  67.7068176  56.7369080   8.3545122  67.0946808  57.4433784   8.5604620
  67.5192871  56.0602570   9.0050535  26.5443821  46.1614723   7.9393315
  26.2422352  45.9035110   8.8101902  27.4980202  46.0941277   7.9869933
  46.4766655  56.5448494  86.1889725  46.3325195  57.4747696  86.3642044
  47.0310822  56.5312614  85.4087982   0.7811617  63.3648682  80.5511703
   0.7630152  64.2852707  80.8134003   1.6267794  63.2564468  80.1159592
  22.2802734  44.5365944  77.6101151  21.7637997  44.4456673  78.4108734
  22.3693676  43.6426315  77.2797699  70.9617310  63.6342125  37.3627548
  71.4160309  63.8567619  36.5501595  70.1226349  64.0906219  37.3007698
  80.2405319   9.1115751  60.2143440  79.4320374   9.3691587  59.7713852
  80.8457108   9.8341885  60.0475349  44.8470306  40.3740959  27.7086105
  44.4381561  41.2255325  27.5533485  45.7858009  40.5597000  27.7308502
  10.8521280  15.9407244  85.2143402  10.2994289  15.6411819  85.9361649
  10.6201448  15.3695726  84.4820862  58.9169044  41.0529175  23.0630512
  59.5739250  40.5283508  22.6054668  58.9952393  40.7885094  23.9796658
  61.4361038  58.3292389  82.0545120  60.8844566  58.0697861  81.3165359
  62.2365036  58.6631813  81.6494598   7.0170288  31.9082928   5.6560202
   7.8561397  32.3391609   5.4932981   6.6578469  31.7462578   4.7836871
  69.9345093  63.9991150  66.6684723  70.3952713  63.8413200  67.4925079
  69.0855408  63.5721245  66.7831955  84.6446838  66.6513596   6.3440042
  84.1877060  65.8399887   6.1224594  85.3178253  66.7390594   5.6691575
  14.4349518   3.2041254  69.3705521  14.1828871   3.0575237  70.2822571
  15.3917131   3.1764615  69.3791656  78.7424011   6.8290672  30.4665699
  78.7582550   6.9038978  29.5124302  77.8959656   7.1961627  30.7215729
  74.2595367  13.8123541  57.3773842  73.6824646  13.2928810  57.9371758
  74.3320312  13.3031988  56.5700836  14.6303883  39.2089806  37.1053963
  13.9423380  39.2275429  37.7705841  14.1723642  39.3788261  36.2822342
  57.0754662  37.1954651  34.7335510  57.4442673  36.9230843  35.5738068
  57.4807167  38.0447197  34.5581322  37.0423737  64.3541107  63.4216843
  37.0861664  64.9003754  64.2064819  37.3436241  64.9253235  62.7151451
  20.9257889  63.2454872  61.5564156  21.4941158  62.7153969  60.9976311
  20.2620182  62.6327209  61.8728943  49.3448792  34.0575485  75.8857040
  49.6456108  34.8651581  75.4691086  48.3907127  34.0946922  75.8192368
  48.6980400  20.7456226   7.3370595  47.8287048  21.1444912   7.2997432
  48.9152184  20.5587444   6.4237461  29.6883183  53.8094254  29.6995392
  29.5756264  54.6300125  30.1792965  28.7980785  53.5398674  29.4736118
  76.5279083   0.7657976  12.8922167  76.1425247   0.0054655  12.4567757
  76.2813644   1.5081993  12.3405905  63.0795898   4.1208577  50.1521454
  63.1374359   5.0718126  50.2447243  62.2441063   3.8910046  50.5587959
  80.3061295  14.4757195  22.5933475  80.6596298  15.2873344  22.9574223
  79.4230118  14.4145470  22.9574814  76.6879807  10.1866684  35.0857582
  77.2867508  10.8602209  35.4082985  76.7218323   9.4981709  35.7498779
  21.7318325  21.9990158  88.1178894  22.5450859  21.9216404  88.6167526
  22.0095253  22.2978477  87.2519684   9.1550770  19.4664135   2.9197538
   8.7043982  20.3081245   2.9878886  10.0779219  19.6968365   2.8125498
  16.8260098  43.6735306   2.8708479  17.7090797  43.9489365   3.1169569
  16.9571114  42.8687477   2.3694811  65.8839035   2.0455897  49.9875031
  65.0809326   2.3684516  49.5785637  66.0388870   2.6452940  50.7172737
  67.5078506  28.5466843  15.1219320  67.4297638  27.6409359  15.4215193
  67.7848740  28.4738235  14.2085953  21.5454540  60.5062866  33.6589737
  20.9919758  60.8828964  34.3431244  20.9782372  60.4623260  32.8891907
   7.3137021  61.4303703  72.0894318   7.5383978  61.7988510  72.9438095
   8.0609779  60.8765335  71.8634338  54.1747475  63.5071220  41.8339539
  54.8225403  63.5739975  42.5354691  54.5267296  62.8389626  41.2458153
  33.1917610   9.7601957  22.2761154  33.3524857   8.8718576  21.9579105
  33.9030952  10.2806807  21.9028416  47.8691483  63.4120522  32.2838593
  48.5184937  63.4654388  31.5826244  47.2520561  64.1184998  32.0931549
  29.5199909  46.7736359  58.5642090  29.4272957  45.8881035  58.2128258
  29.2626896  46.6949577  59.4828148  85.4643860  55.4398727  12.7164011
  85.6403961  56.3284073  13.0258579  84.6010361  55.2290497  13.0719328
  26.1024380  43.5686111  42.0980797  25.9698372  42.6347809  41.9349442
  26.7735291  43.5997086  42.7799149  68.7256012  51.1010017  41.3665009
  69.2049179  51.7492638  41.8824844  69.3227463  50.8729095  40.6540260
  78.0576782  47.8822632  58.0837975  78.5046234  48.7286606  58.0927620
  78.6324158  47.3133240  57.5717278  13.6627817   7.2482805  21.6380672
  12.8346138   7.3718491  22.1018581  13.7887440   6.2995505  21.6214447
  41.9173393  35.5131569   9.1933746  42.5475960  35.3904266   8.4834843
  41.8750801  36.4616814   9.3148232  57.5780411  32.2696724  85.4949646
  58.2631607  31.6049671  85.5657806  57.1992950  32.3177109  86.3727341
  74.8093185  16.5636520  17.2299843  75.3407059  16.3849163  16.4541531
  75.2314453  16.0649490  17.9295063  51.3058853  52.7641983  35.0098877
  51.3768082  52.0845108  35.6801338  50.3710289  52.8052826  34.8084183
  60.1628609   6.1445537  73.4775009  59.7745667   5.6644201  74.2088928
  61.1059914   6.0191154  73.5824051  78.7319794  64.7334518   6.3307962
  78.0135651  64.2694550   6.7606983  78.5423203  64.6549835   5.3958626
  62.0671616  27.1938152  42.2677536  62.8767548  27.6388893  42.0173531
  62.2900238  26.7261620  43.0726547  81.0943604  31.9435158  88.2474136
  81.1897125  32.6326714  88.9048386  81.2608032  32.3832092  87.4136276
   4.3756785   2.3630869  72.6246033   4.7580843   2.3935494  73.5015717
   3.6642420   3.0029180  72.6511765  76.8578873  16.7996235  48.7898750
  76.3279877  16.4452667  49.5039291  77.5378418  17.3117943  49.2275696
  83.1721802  35.1320572  68.9163437  82.2715988  34.8919449  69.1343765
  83.1425705  35.3525200  67.9853516   2.4009767   8.1082525  28.5393314
   2.3272812   7.8030362  29.4435673   3.3343263   8.2848940  28.4214821
  72.8804092  50.3591194   5.5151329  72.6619263  49.4714584   5.7989459
  73.7882004  50.2988319   5.2176194  68.2450485  36.4653473  88.2485886
  68.1496429  36.4685516  87.2961578  67.4078293  36.7958374  88.5742722
  83.0148926  28.9052105  52.4417648  83.0957718  28.0753155  51.9716988
  82.9351349  28.6526814  53.3616028  27.9974499  62.8553581  88.5618896
  27.3428001  62.5361061  89.1829681  27.4857540  63.1897087  87.8252640
  16.6179695   7.9856677   7.1620545  17.3579388   8.5921736   7.1332512
  16.0991592   8.2762632   7.9121346  51.7170067  19.3517952  73.0087051
  51.6595230  19.1775589  72.0692520  52.1824722  20.1859837  73.0695496
  24.0203724  57.8699036   3.1688967  24.9362755  57.8304405   2.8935809
  24.0603752  58.0308380   4.1116228   8.8948011  38.3261032  70.1200256
   9.3630238  38.4502029  70.9456177   7.9696283  38.3870850  70.3578720
  34.5413055  52.9745598  59.2073593  35.0536308  53.7825928  59.1783752
  35.1949692  52.2789268  59.2783775  45.8878326  47.5824623  23.1142387
  45.3653641  47.0802689  23.7395859  46.2864761  46.9206238  22.5491867
  10.9186783  26.6077003  15.2613621  10.0139818  26.6377926  14.9501562
  10.9989748  25.7515526  15.6818323  36.4895821  30.8348656  84.2282410
  36.2071190  29.9884167  84.5746078  37.3697586  30.9575233  84.5838699
  62.7665939  17.0790062   7.9330969  62.1243172  16.5213947   8.3721685
  62.2406197  17.7278919   7.4656234  70.9898911  27.0908508  86.0155106
  70.5132446  27.1690750  86.8419037  70.4572296  26.4964390  85.4871292
  84.6885605  50.3131332  21.1905766  85.1142197  50.4068604  20.3383675
  84.4332275  51.2040291  21.4300461  78.1905289   9.5829620  21.4785595
  78.6425858  10.4105682  21.3143978  78.4322205   9.0269976  20.7378006
  40.8676262  12.2314386  75.4241486  40.6512032  11.4532385  74.9105377
  41.8043137  12.3626347  75.2770462  24.4192314  23.6064987   2.6785069
  23.5701942  23.2580051   2.9503887  24.2399712  24.0573673   1.8533909
  56.6911163  36.5382271  30.4401169  56.2083359  36.1342735  31.1612110
  56.7911720  37.4534836  30.7018909  53.1808624  31.8213062  75.9529114
  54.0019226  31.3320370  75.9008713  53.1755905  32.1869545  76.8375015
  68.8931122  46.3485680  27.5528393  68.4043427  47.1144333  27.8541470
  68.4735565  45.6087074  27.9919395   8.0949869  39.4179573   0.4569144
   8.6259995  39.8980446  -0.1785191   7.5599761  38.8285599  -0.0746896
  18.3227329  69.1851730  71.5912933  19.2599087  69.1810532  71.3965683
  18.0253506  70.0533142  71.3190384  15.1663980  19.0168362  17.1327267
  15.4597702  18.6824932  17.9803009  14.2249184  18.8445263  17.1201420
  68.6340485   3.0674953  22.7171288  68.8669434   3.9889212  22.6032619
  69.4410095   2.6523468  23.0215988  38.7262764   1.2374233  46.7603378
  38.7970047   1.9848123  47.3541718  38.7524147   1.6237381  45.8849487
  12.2152243  62.9642792  37.1291046  11.8027382  63.6940880  36.6670837
  11.4832411  62.4193649  37.4180756  18.5566673  57.5962791  58.6348991
  19.1276474  57.7558746  59.3863945  17.8989353  58.2900963  58.6822205
   3.4808025  26.1601467  32.0656509   3.8509374  27.0420856  32.1032562
   2.9251819  26.1002445  32.8427811  52.2756424  24.1239853  33.1183510
  52.3755722  23.2939262  33.5844460  52.7705231  24.7539463  33.6422577
  74.8821945   0.3779396  54.9942665  75.2646255  -0.1317080  55.7085762
  75.6360626   0.7237532  54.5164375  56.1087341  35.8572083  24.7424297
  55.4177055  35.1963882  24.6973343  56.7787132  35.5450363  24.1342316
  44.0667152  11.1367769  79.0635910  43.1781082  11.4895630  79.0172195
  44.0884933  10.4536867  78.3934021  81.2424088  27.2634716  77.1469116
  80.9845352  27.5482006  78.0236511  82.1118317  26.8809719  77.2653656
  62.7886162  19.7896481  81.8210678  63.5338287  19.3414822  81.4210281
  62.5705414  19.2563152  82.5854187   2.1866052  13.7380905  62.0939751
   2.3990262  14.5654106  61.6619453   1.3155049  13.5137520  61.7667351
  58.9482574  37.6100960  32.0263481  58.2709694  37.5222816  32.6970177
  59.4807358  36.8200645  32.1187973  25.1715355   4.3872752  75.2001495
  25.5841866   5.1514988  75.6025314  25.7530499   4.1543689  74.4763870
   2.7850404  63.5085831  61.8318214   2.5894487  64.1373749  61.1371346
   1.9526727  63.3907547  62.2895470  78.4350357  39.6203384   4.8000646
  77.9815292  38.9212685   5.2710876  79.0970383  39.9339752   5.4161992
  65.0825958   9.0713806   1.2455273  65.8464508   9.3977785   1.7211514
  64.4265060   9.7614231   1.3436430  53.9355431  59.0750999  83.8550262
  54.1863060  58.9477959  82.9400711  54.0719795  60.0092621  84.0130157
  23.3565521  57.8229294  76.9267349  22.4565697  57.5000610  76.8818054
  23.7971382  57.2213631  77.5269318  80.8883972  11.5386839   1.3824965
  81.2381821  12.3088865   1.8304610  80.1597824  11.8752813   0.8609129
  47.7110901  28.2106781  74.6581421  48.5466995  28.6407051  74.8399811
  47.3334045  28.0461025  75.5221405  14.6867285  32.4652481  77.6037598
  14.3189926  32.8975601  76.8329697  14.7033949  33.1468925  78.2755585
  59.6014366  69.7972870   2.6459520  59.5941925  69.1271439   1.9625118
  59.6234970  69.3032990   3.4655404  46.8897018   9.7037649  37.1601715
  47.1030159   9.6809998  38.0930252  47.2731590  10.5228720  36.8467140
  12.2944107  54.1836395  33.7094116  12.4367971  55.0718346  33.3821945
  13.0300732  53.6795006  33.3617363   9.3309050  43.2445526  26.3104191
   9.8130760  44.0379753  26.0775681   9.4049902  43.1901932  27.2631989
  85.9811249  12.0548239  62.3308792  85.3477707  11.8850365  61.6335526
  86.2065048  12.9796019  62.2297783  31.2789345  58.3260345  19.8697853
  30.9038296  57.5825615  19.3977966  30.5326271  58.7295799  20.3129673
  48.6001205  47.2440681  42.2889786  48.5937691  46.8460922  41.4184570
  47.6997986  47.1523705  42.6008263  77.3648758  56.9803925  66.8387909
  77.4166260  56.0259552  66.7877350  76.6262512  57.2106972  66.2751999
  42.5051193  46.5469437  73.1595078  42.3746071  47.4750824  73.3538208
  42.1716881  46.0912323  73.9324112  57.2610054  24.0165577   2.8360610
  56.3350449  24.2503185   2.7713506  57.5072937  23.7649937   1.9459550
  21.0989494   1.3856879  12.3925705  21.3711243   2.0616441  13.0132456
  21.9187832   1.0003251  12.0833759  17.4668674  23.1101379  19.4918613
  16.8081951  23.8021660  19.5508537  17.3616810  22.7539368  18.6096554
  62.8196182   4.9795313  62.1421547  63.1930275   5.2510123  61.3036461
  63.5447998   5.0536866  62.7625160  19.3209000  30.7377415  23.4814453
  18.8684692  30.4483376  24.2737732  20.1211433  31.1543751  23.8012257
  25.5768280  66.5207901  24.6038284  26.2608490  67.1808319  24.4911785
  25.4525547  66.1529160  23.7289257  43.4692955  16.2399158  40.3254776
  44.3019371  16.4927559  39.9267120  42.8098640  16.4755898  39.6729126
   3.1437190  66.8040848  53.0872688   2.9896173  65.8618927  53.1563187
   2.7152133  67.1740646  53.8591003  53.1924706  65.8460007  87.1208344
  52.4747162  66.4564362  87.2894440  53.4993324  65.5909271  87.9908981
  43.9902611  35.1324387  58.8943481  44.3987808  35.7467346  58.2844391
  44.6041374  35.0781860  59.6267738  50.0200424  38.1694374  34.0815926
  49.2907104  38.3104095  34.6852760  49.6030350  38.0174446  33.2335129
  22.6558495  32.6593781  14.9591579  23.2780533  33.3578644  14.7561502
  22.3714180  32.3360634  14.1042910  65.1996689  66.0551071  28.0011673
  66.1527557  66.0062332  27.9272442  65.0434647  66.7746048  28.6128502
  32.9524574  42.3819275  40.1940155  32.6062469  41.7577438  39.5562325
  33.6734848  42.8156052  39.7376442  29.7526932  64.3971863  76.2636108
  29.5727844  65.2509613  76.6572266  29.2486820  63.7786636  76.7924194
  27.8217888  67.1263809  69.0821381  28.5956287  66.6713333  68.7499771
  27.6986065  66.7765884  69.9645844  45.6511841  64.7132568  88.8444366
  45.4207611  63.8394432  89.1600113  46.5708847  64.8207016  89.0870056
  44.7054405  58.2330551   6.1247492  45.4307709  58.3829346   6.7311044
  44.9099617  57.3954506   5.7090387  12.5339088  26.6477108  18.9978733
  12.1826267  25.7627296  18.8996849  11.7717791  27.1854248  19.2129421
  86.0008469  27.4919796  16.2069435  85.4746704  27.1190605  15.4996195
  85.4789200  28.2252598  16.5327187  16.8275566  33.5079651   5.3310537
  16.3642254  33.6199837   4.5009885  17.1159687  32.5952835   5.3230934
  23.5205574  26.0780201  71.3843536  24.2238159  25.4311085  71.3280869
  22.8093548  25.7045364  70.8638382  45.8564949  13.7372150  63.5011292
  46.0116348  14.6222334  63.8311348  46.6726189  13.4991198  63.0612640
  49.0955467  34.2911491  70.2355042  48.1809578  34.1257477  70.4644089
  49.1367302  34.1421890  69.2908630  73.4728928  13.3185663  84.6312027
  74.4292908  13.3354425  84.5958862  73.1961517  13.5775433  83.7522430
  12.7608662   1.5223384   6.7240458  12.0883932   0.9574915   6.3433099
  12.6787119   2.3478692   6.2465720   2.1942289   9.6881742  32.5006866
   2.4216602   8.7612123  32.4282455   2.1916437  10.0054417  31.5976009
  67.3856506  18.2235870  77.5883102  66.5580444  18.6553230  77.8002014
  67.2116852  17.7615585  76.7682495  42.8993568  66.8935394  73.5907745
  43.2707710  67.7717819  73.6743393  43.2556572  66.4108505  74.3366241
  79.3794632  10.3119583  81.8030853  79.8959503   9.7311821  82.3618088
  79.6704865  10.1100273  80.9138336  14.6993561  69.2924118  55.6945000
  14.4159813  69.4551697  56.5941887  13.9962339  68.7665024  55.3133583
  85.7612915  17.4489021  78.4972992  86.1947021  16.6017132  78.3940506
  86.4768372  18.0846424  78.5049667  62.3588333  13.6747475  33.2760887
  63.1961212  14.1039753  33.4519958  61.9702530  13.5441408  34.1410637
  45.5392914  28.5029850   7.5208111  44.8243523  28.4250183   6.8891344
  46.2978325  28.1305790   7.0711899  64.6199646  18.0085239  54.1567421
  65.1783447  17.2855835  53.8707352  65.1717606  18.7859154  54.0706024
   3.4309733   2.3013363  33.0692406   3.5631337   3.2476599  33.1261368
   2.5209868   2.2030013  32.7890854  49.4360123  53.9427147  70.0388489
  49.3901863  53.4688187  70.8692474  49.2681999  54.8552132  70.2742538
  12.1235390   3.1948993  15.9995718  12.1823635   4.1181293  16.2453728
  11.4892159   3.1777909  15.2829313  60.5320587   2.8578753  50.0252380
  60.3947411   3.7027903  49.5968742  59.9676323   2.8864803  50.7977905
  76.4501877  50.0581055  70.7104340  76.3227768  50.9060364  71.1358948
  75.7790375  49.4940720  71.0947037  18.3473835  11.5494089  64.9059067
  19.0539398  11.2778683  65.4917984  18.4489956  10.9925737  64.1339951
  59.0460320  11.1514034  12.7159061  59.9025307  11.4219389  13.0467443
  58.9321213  10.2603493  13.0464792  81.6282730  40.1292038  81.4817657
  80.8126602  40.4094543  81.0664673  81.7571106  39.2316589  81.1751022
  72.6750565  33.3556137  57.6260834  73.5163574  33.5066071  57.1952171
  72.4079208  32.4849472  57.3314514  61.1287079  64.4965210   7.6060681
  61.6363754  65.0423126   8.2065783  61.4820862  64.7004700   6.7401810
  52.5260658   7.8170528  37.5163803  53.0085793   7.3576417  36.8290977
  51.6338158   7.8868375  37.1768951  35.4603119  34.7947655  37.9598885
  34.6959305  34.4913597  38.4496803  35.8556976  33.9948769  37.6133614
   7.6856937  23.2962437  57.4435234   7.5080004  23.5463581  56.5368271
   7.3640189  24.0332565  57.9627228  75.8241959   3.5068126  80.2845917
  75.4197006   4.3325310  80.5506897  75.7796402   2.9555700  81.0658646
  36.8953247  69.5751648  74.7466660  37.5294609  68.9886856  75.1591492
  36.5601234  70.1098328  75.4663849  74.0710831   0.8860171  16.3921928
  74.2002869   0.3924151  15.5823193  74.1459427   1.8030692  16.1282921
  29.7664852  62.5645142  29.8584404  30.3431988  61.8182640  30.0219612
  29.5341702  62.4893913  28.9329033  12.9989662  38.2975044  51.3386002
  13.1089859  38.5109406  52.2651901  13.8895149  38.2871513  50.9878197
  12.0722294  65.5856476  20.7549610  11.5839348  64.9528580  20.2282963
  12.7088556  65.9623108  20.1474552  21.9938030  41.5628166  35.9303055
  21.3867435  40.9001350  35.6008224  22.7373219  41.5268593  35.3285446
  64.4105759  37.4560661  16.1230183  64.6198654  38.3806076  16.2558632
  64.0632706  37.4147415  15.2320061  10.1381950  52.5330582   5.9368572
  10.7197857  51.9670868   5.4292560  10.3902035  52.3803101   6.8475671
   1.6867635  33.3373108   3.3506989   1.9280151  32.5875969   2.8066785
   1.9264584  34.1010742   2.8258715  82.0009613  66.7160568  77.1103668
  82.0755768  67.5335083  76.6179810  82.6933746  66.7691956  77.7691269
   1.6027771  20.8050995   3.1255774   2.0349634  21.0535545   3.9427168
   2.2390594  20.2473164   2.6780787  44.5429153  30.1897888  35.9695244
  43.6599121  29.9922199  35.6572647  44.5297279  29.9462185  36.8951225
  22.0656013  48.5816422  26.6896935  22.2995872  48.3502655  27.5885525
  21.8590431  47.7450027  26.2730408  42.4632416  53.0643692  41.3811722
  42.6472893  53.8299713  41.9254227  42.0752525  52.4298439  41.9837265
  67.6756439  39.4467316  39.1000977  68.3049850  38.7270775  39.0525398
  66.9063416  39.1235390  38.6311035  61.4828758  70.6050873  56.1235619
  61.5952492  71.0334320  56.9721603  61.1006546  69.7531281  56.3340569
  70.5866928  15.5976601  67.7935562  71.3582382  16.1640930  67.7831802
  70.7855148  14.9341965  68.4542542  26.6719055  62.7489700  76.4447174
  27.4185143  62.2632408  76.0941849  26.0341091  62.7556801  75.7309952
   1.6676086  65.1760178   8.9135447   0.9983335  65.8457413   9.0541706
   1.1938130  64.4425583   8.5213861  66.0824127  71.8902893  11.1719189
  66.8102341  71.4993896  11.6553497  65.5495682  71.1442642  10.8966770
   2.3252265  47.5274506  27.4373341   1.7818400  46.8420029  27.8260803
   2.5432158  47.1952286  26.5665073  14.2706738  14.1823683  12.6680336
  14.9295740  14.6706572  13.1616488  14.2785454  13.3081703  13.0578384
   5.9515567  63.2329674  86.1884460   5.3975992  63.6970901  85.5607910
   5.4624233  63.2669449  87.0105362  86.1582489   7.0898590  31.2942886
  85.4598999   6.5171227  31.6113300  85.8665543   7.3646202  30.4250050
  32.1393738  67.1646881  67.0199356  31.3950291  66.7513657  67.4573669
  32.7793846  66.4600906  66.9191208  62.8607445  40.4602242   9.3805990
  62.5986977  39.5722694   9.1374931  62.0909081  40.9970856   9.1925573
  73.0224609  37.1105537  57.5705986  72.2639084  36.5930023  57.3004723
  73.5469131  37.2001724  56.7748909  54.3975487  39.6080360  42.1447906
  53.7352219  40.0725060  41.6331024  54.4659195  38.7501984  41.7256622
  33.4500580  38.2387505  71.5362320  33.8711472  38.0931816  72.3834229
  34.0311432  37.8156853  70.9041061  67.5557861  23.6116619   3.9366572
  67.9429016  23.2261696   4.7226396  66.7525711  23.1106853   3.7948668
  70.7238083  58.1678696  10.4677563  70.5002518  58.1211739   9.5381994
  71.1122131  59.0358315  10.5773773  25.8476582  30.4083939   0.5748972
  26.7102261  30.5123653   0.1731554  25.6545486  31.2662964   0.9529740
   8.5353107  29.9423599   3.2403271   7.9129453  30.6041126   2.9387066
   9.2476234  29.9747715   2.6017413  71.4536057   5.6307697  21.2220497
  71.4054108   6.5590954  20.9937515  71.4886475   5.1783590  20.3792400
  19.0585785   3.9507003   8.5670815  18.2393322   3.4773884   8.7121334
  19.2225056   4.4046621   9.3936882  55.8897896  52.9642372  71.6707535
  56.4954605  52.4360619  71.1507263  56.2575035  53.8475456  71.6427383
  36.7649345  15.2964563   0.8641452  36.7391777  14.3447447   0.7650877
  37.3597832  15.5929461   0.1753194  48.6395645  12.9006481  25.6629696
  49.4981575  12.8558693  25.2422047  48.0845909  12.3251476  25.1366272
   7.5268340  26.1181965  63.5343628   6.8480554  25.9093227  62.8925934
   8.1096745  25.3589973  63.5222321  84.0062408  40.1766663  66.3468323
  84.5525742  40.7124863  65.7718048  83.4447021  40.8064270  66.7988358
  21.5279293   5.2600126   3.6495590  21.4315567   4.3301387   3.8551793
  20.7416306   5.6681967   4.0119872  75.9250565  47.2958145  65.6360931
  75.8433762  46.4842682  65.1351395  75.0412369  47.4662399  65.9617538
  52.1591759  32.4607010  64.5655136  51.7174606  31.7211781  64.9829254
  51.8648796  32.4326363  63.6551132   0.2092012  56.2021713  10.3007135
   0.5720440  56.3928108   9.4357080  -0.3832944  55.4647064  10.1546888
  55.0933037   3.3779848  11.7413340  54.3416023   2.8723683  12.0504122
  55.2239952   4.0475559  12.4127703  86.2068939  18.7386169  82.5161896
  85.9031601  19.4504204  81.9528885  85.6109467  18.0135193  82.3282700
  55.7086372  43.6602478  43.3198242  55.8162880  43.0480995  44.0477791
  56.5188522  44.1698990  43.3136444  60.2208710  34.6285439  28.6884766
  59.5508041  34.8968163  29.3171806  60.1488304  35.2637062  27.9760094
  34.3492165  46.0859489   7.4148154  34.2716866  46.8527031   6.8470893
  33.4492226  45.8872566   7.6731968  38.8195953  62.3419075   0.5734771
  37.8718948  62.4689713   0.6175802  38.9537201  61.4385033   0.8600174
  30.5278587  53.4457016  38.5993500  30.6806488  54.0735855  37.8931961
  30.5363655  52.5919075  38.1666908  47.5469551  67.3174973  61.6394768
  47.0994110  67.5922394  62.4397583  47.5920525  66.3636551  61.7056847
  68.7111893  28.0739441  36.1860580  68.1035919  28.4362869  36.8308601
  69.5752106  28.1832657  36.5832329  59.7531395   7.6706386   0.8064504
  60.3195076   7.9640660   0.0927575  60.2299614   6.9438500   1.2072644
  70.8946228  55.1149063  55.5857773  70.9359436  54.8990669  54.6541443
  71.7051773  55.5944977  55.7567062  51.1409798  56.2651558  19.9339428
  51.2693176  55.4148064  20.3542595  50.5402908  56.7314606  20.5152931
  64.2211151  28.5785160  41.9140015  65.1705704  28.4725208  41.8545303
  64.0937195  29.1963997  42.6338768   2.9961956  24.3874702  51.7122307
   2.1838248  24.0245819  51.3592453   3.6857734  23.8381920  51.3393936
   0.3215344  38.8416290  64.8221741   0.8031609  38.4761963  64.0800629
   0.9887698  39.2856865  65.3454742  69.6031952  19.2890186  63.9516602
  69.8536148  18.3917484  64.1717300  69.4249878  19.7020245  64.7965851
  43.9256325   3.6993260  67.2064285  44.4891586   4.1449175  67.8389816
  43.0561104   4.0698762  67.3575974  33.3193779  57.4489937  43.7231560
  33.5844841  57.2837982  42.8183594  32.3764267  57.6052933  43.6717186
  28.5237961  61.8204193  38.7743263  27.5976524  61.7082901  38.9886055
  28.8424320  62.4566689  39.4145546  28.6322231  48.9594078   9.9979830
  29.3794193  48.3695107  10.0977306  28.7373447  49.3332672   9.1231050
  85.5645905  18.3987083  53.2216606  85.5991821  17.4619255  53.4152451
  86.0907974  18.4989376  52.4283791  34.0255165  41.1788063  58.8545380
  33.7642097  41.3708344  59.7551346  33.4745636  41.7491875  58.3184929
  41.8091393  70.2897873  40.7187958  41.5823174  69.5378494  40.1716537
  41.8622589  71.0239258  40.1068687  34.6523247  35.8763580  23.9612694
  35.0455017  35.2183990  24.5346222  35.1847267  35.8501358  23.1662254
  68.7657623   6.3785167   2.7717314  69.4802170   5.8647885   3.1483865
  68.1923141   6.5711617   3.5135412  21.7801552  58.1962318  22.0504513
  21.3364162  58.6490097  22.7676125  22.5262051  58.7571411  21.8382607
  40.7933846   9.3407316  20.6188030  39.8472672   9.4855738  20.6292400
  41.1194992   9.8338451  21.3716106  37.7582283  42.3165855  69.5695267
  37.2326927  43.1063995  69.4421158  37.3414993  41.8676796  70.3050919
  68.3623810  26.0560017   3.3706365  69.1565399  25.8385792   2.8825064
  67.8630676  25.2396164   3.3915987   9.2980785  68.8402481  57.7229729
   9.1507263  69.6487045  58.2137947   8.5887566  68.8173370  57.0806580
  22.1917210  67.8524704  65.6622696  22.7247734  67.5267334  64.9370270
  21.3664398  67.3734436  65.5869598  47.6473122  17.3635845  23.4342251
  47.7666702  16.7278233  22.7286797  48.1466255  17.0041485  24.1675205
  43.0596085   2.2236841  63.6496658  43.5503502   2.4887879  64.4275665
  42.1778984   2.0399466  63.9737968  77.8445129  44.4239349  35.7867737
  76.9166183  44.3689270  35.5582581  78.2955933  43.9892235  35.0630417
  30.1030598  28.4655838  75.0193100  30.3785400  29.2671185  75.4641495
  30.2063942  27.7785931  75.6777878  79.4036179  46.4730911  60.8107262
  79.5505524  47.3831024  61.0686340  80.2747269  46.0765915  60.8245392
  29.4903297   2.9303808  16.9931335  29.0184307   3.4285953  16.3258057
  30.3874989   3.2611189  16.9491787  86.5069504   2.6802659  53.9471283
  86.2400665   2.5325418  53.0398331  85.7874222   3.1824074  54.3297081
  53.1681557  29.9946957   0.3384866  52.9390526  30.5619926   1.0746373
  53.8329048  30.4857216  -0.1444576  74.4778595   6.2970185  18.6582737
  74.5098801   6.6347947  19.5533218  74.6079865   7.0682325  18.1064320
  51.0895691  20.8861103  43.8357010  51.4827995  20.7568798  42.9726219
  50.6213646  20.0696850  44.0102539  39.6131630  12.5101738  70.2800674
  40.3213539  12.6554375  70.9074402  38.8154106  12.7152624  70.7676697
  61.8364182  64.5107727   0.4076881  61.2821426  64.3455200   1.1703836
  62.3481216  65.2836838   0.6464321  85.0634689  70.1212921  44.7174759
  85.0859528  70.5603027  45.5677643  85.0787964  70.8344727  44.0792198
   4.8526864  66.8738174  56.0460052   4.1731949  66.4078369  56.5332260
   5.4608583  66.1887512  55.7684326  65.9776993   3.1480062  52.8440399
  66.2216492   2.2369246  52.6807976  65.0751343   3.1014638  53.1594048
  24.1095772   3.0532923  68.4846954  24.4809399   3.6484773  67.8334885
  24.5553665   3.2822452  69.3002243  75.9288635  37.7303505  12.4005775
  75.5622101  36.8899231  12.6753187  75.4131699  38.3829727  12.8742599
  44.1358948  45.2086945  51.8683395  44.4348412  44.6602135  52.5936203
  44.9215889  45.3602982  51.3430443  51.1843300  52.0793304  83.0771713
  51.3221855  52.3416977  82.1670074  52.0488358  52.1534271  83.4813614
  55.4450226  48.2475815  88.8168640  54.5011749  48.3622704  88.9274368
  55.5355949  47.8101959  87.9702682  33.7952919  70.6776428  57.4097862
  32.8525887  70.8322983  57.3495636  34.1789093  71.2886047  56.7806664
   9.3334885  25.8503532  20.4503765   9.2601595  26.3893108  19.6627350
  10.0748491  26.2231293  20.9275074  84.1614990  26.7161808  14.5243311
  83.8476791  27.1648674  13.7391996  83.4777527  26.0768452  14.7242613
  28.5737572  40.4327965  78.9519272  29.0377712  41.0783348  78.4188156
  27.9020729  40.0789909  78.3689194  25.7384453  70.1427841  32.9867401
  25.8433418  70.6629639  33.7833824  25.6102619  69.2475586  33.3003807
  59.6101341   5.4479446  49.2668648  60.4295578   5.7284231  48.8593025
  59.7252808   5.6449575  50.1964645  58.7888184  26.6753902   3.0406573
  57.8767967  26.4348087   2.8776615  59.1008263  27.0140800   2.2015069
  63.1502724   8.1023083  29.0065231  62.4219780   7.6428657  28.5885105
  62.7315941   8.7631865  29.5580502  63.9591904  51.4906425  65.5231552
  64.2984085  52.3591537  65.7396088  63.5041504  51.2068024  66.3160019
  36.5617218   6.8955927  73.5090714  36.1585541   6.3464622  74.1814880
  36.8497772   7.6777945  73.9796219  12.4203720  44.6596336  50.5967064
  11.7721834  44.5636749  51.2944717  13.0726299  45.2606277  50.9567070
  19.5403881  59.9993896   8.5520582  18.6609764  60.1184692   8.1933308
  19.5394402  59.1065369   8.8970928  45.1428680  16.2988319   5.3217411
  45.8980026  16.3536892   5.9074016  44.4951591  16.8867836   5.7103477
  76.0296555  25.1739330  47.6834488  75.4516602  25.4094257  48.4091873
  75.8987885  24.2326851  47.5687408   5.5510216   0.6419188   2.2079601
   4.9901028   0.8105456   2.9650383   6.1087890   1.4173207   2.1456785
   5.7664161  36.5320511   9.0744734   6.4992375  36.1065826   8.6292982
   5.3089452  35.8181686   9.5186834  37.1075783  52.2205353  33.6728439
  36.2071381  52.5452271  33.6684570  37.3271523  52.1108704  32.7476463
   3.0802066  49.5810089  69.1752319   3.8926110  49.2025299  68.8390961
   3.2154541  49.6369476  70.1211777   2.9433150  58.3950386  17.1940536
   2.4395819  58.0533638  17.9327984   3.3519211  59.1923332  17.5310936
  83.5017166  65.7653580  13.2936878  83.6130753  66.3057480  14.0758696
  83.6552505  66.3655853  12.5640411  76.1940384  52.9600182  69.6030731
  76.5632248  52.5673943  68.8120117  76.9456024  53.0818024  70.1831970
  54.8710747  53.7553139  77.9193649  54.5227661  54.0410423  78.7639160
  55.6398354  53.2304878  78.1425095  12.3158922  22.2322712   2.6220646
  13.0645599  22.5812778   2.1384094  11.6194954  22.8736286   2.4809084
   7.5193267  13.1053581  15.2771111   8.2093019  13.6316795  15.6810322
   6.8595986  13.7433453  15.0051498  45.4799995  56.8077850  68.8054657
  45.0020180  57.5532265  69.1688995  45.0188255  56.6008263  67.9926147
  77.2750168  71.3521423  20.6903782  78.1997604  71.5881577  20.6170692
  77.2664642  70.5968857  21.2783833  24.2539692  21.8957577  81.5377045
  23.4900513  22.4305973  81.7536011  24.4498825  22.1146679  80.6267014
  77.0044327   0.4189821  86.3600159  76.1294327   0.6239658  86.6895599
  76.8557281   0.0924274  85.4726181  77.1250458   2.1790714  58.4591637
  76.4058990   1.7063410  58.0401344  77.8439560   1.5476137  58.4848595
  48.3260345  26.2604713  61.2500763  49.1628380  25.8991814  60.9577408
  48.4618721  27.2079811  61.2521477  58.9488220  39.5353470  74.4610748
  59.6752892  40.0128746  74.8616333  58.6252937  40.1213646  73.7768631
  57.4876671   8.9153700  44.4099350  58.0374146   9.3727980  45.0461502
  56.6001740   8.9942627  44.7597389  17.7260189  34.3492050  74.4503708
  17.0494308  33.6764336  74.5267868  18.5507660  33.8648796  74.4885101
  47.5571289  41.2163124   0.7370714  47.0358887  40.4197884   0.6366221
  46.9283562  41.8797798   1.0211339   3.1631892   8.0494823  18.0074310
   3.7962718   7.3385696  17.9072208   3.5882990   8.8071718  17.6056614
  87.0130920  63.2162247  77.7507553  86.2781677  62.6042671  77.7909851
  86.8585052  63.8240509  78.4738617  26.3698940  21.7319145  76.6851501
  25.4461422  21.4887123  76.7465439  26.4574356  22.1226025  75.8157120
  58.2317505  37.2847176  37.3611641  57.8600883  37.5084763  38.2144127
  59.1037560  37.6794014  37.3688011   8.7472820   5.8650451  24.0869770
   9.4126635   5.6498823  24.7405853   8.4464645   6.7404714  24.3306370
   0.7075050  34.4426003  47.2962990   1.2927953  33.8881989  47.8123474
   0.0897307  33.8309937  46.8956413  55.0030327  21.3021908  10.5763626
  54.9027176  22.2064686  10.2789564  55.8215523  21.3026733  11.0726061
  30.6253986  54.9900169  33.4267120  29.7534313  55.2839546  33.1630707
  31.2257309  55.5614929  32.9479103  42.3744431  20.6543007  17.7943001
  43.1208267  20.1169376  17.5290031  42.1639938  20.3523846  18.6779251
  40.1388664  59.7953835  55.5402298  39.7395172  60.6520691  55.6913567
  39.4995651  59.3239784  55.0060921  56.6479797  27.1035748  67.4526596
  57.3843193  26.6876411  67.9010315  56.1297379  27.4951973  68.1557159
  86.9797974  33.0123596  85.8859177  86.1136703  32.6078873  85.9354858
  86.9013138  33.6615715  85.1869202   8.0940695  69.5894241  69.3265381
   7.3704371  68.9628983  69.3335495   7.6940827  70.4142456  69.0509949
  46.5116425  41.1204185  75.3384018  46.6284714  40.8932228  74.4159241
  45.7646141  40.5934525  75.6221085  69.5223465  34.8487015   0.7310656
  69.1395416  35.3951645   0.0447172  70.4463196  34.7759819   0.4918618
  41.9474564  56.2877388  67.0231628  41.3932533  56.8584671  66.4908524
  42.5698471  55.9105148  66.4014206  53.4544334  68.1615067  26.0216866
  52.7989845  67.8868179  25.3804646  52.9432907  68.4571075  26.7750683
  41.7610741  46.2670555  85.1716156  41.3736420  47.1043282  85.4267731
  41.0447807  45.6372414  85.2521744   4.3632727  58.8260384  20.3699684
   4.3256764  59.3376846  21.1780758   4.0259042  57.9646912  20.6159267
  67.3266449  13.2652359   9.3635645  67.6323013  12.8414688  10.1655788
  66.6306000  13.8544788   9.6543236  25.9207478  66.7193146  67.0783768
  25.4967346  65.8907318  66.8549957  25.6823406  66.8714676  67.9928360
  61.4209099  44.7469139  62.5493279  61.1851425  44.0431099  61.9449196
  61.4113960  45.5382500  62.0108833   9.3363066  31.8680706  28.1449242
   8.5524817  31.5856686  27.6736507  10.0251970  31.2779732  27.8392315
  15.0863867  11.1070137  60.1398621  14.1509514  11.1295824  59.9381599
  15.4119558  11.9633198  59.8624153  65.3931656  61.4209595  18.5183659
  65.7606354  62.1973228  18.9408150  65.0504990  60.8947449  19.2407990
  45.3918953  69.1770706  35.3933029  45.5520477  68.3726959  34.8997879
  45.3258018  69.8590317  34.7248802  61.8013687  24.8396454  54.9916420
  62.4283829  24.1184769  55.0463829  61.4476891  24.9172993  55.8777084
  59.2542496   3.9140832  10.6509809  59.2714462   4.7417617  10.1704760
  59.1842651   4.1721249  11.5700827   4.8629384   2.7533686  46.0276909
   4.3443480   3.0617576  46.7707863   5.6610546   3.2809780  46.0571976
  58.1948662  26.2628613   7.2075496  58.7634506  26.3699627   6.4450035
  58.7732735  26.3970547   7.9583287  65.0944977  21.7490883  87.6356659
  65.4417801  22.4478359  88.1900864  64.2529602  21.5243206  88.0325623
  80.7113647  27.7800217  41.6772614  81.2424927  27.8925266  40.8889198
  79.8969727  28.2451439  41.4857788  54.4444885  33.9657631  41.7588387
  55.3858719  34.1208572  41.6815453  54.3104210  33.1043510  41.3635864
  51.6938820  56.1276245  73.7466583  51.9757690  56.9975891  74.0293884
  52.4996033  55.6115227  73.7205048   2.1000535   3.3191910  65.7790604
   2.7537673   2.6402588  65.9462204   1.8625776   3.6422141  66.6482544
  71.8442688  17.3310337  28.2310753  71.5206985  16.4614449  28.4663429
  72.7814636  17.2056656  28.0821877  48.8036270  58.5102539  27.7689304
  49.3642921  57.7531013  27.5998001  49.3992767  59.1783409  28.1081848
  39.7913933  37.3756905  15.2519445  39.1224442  36.8109512  15.6389961
  39.3678322  37.7559280  14.4823685  20.5005741  64.7693634  23.2413197
  21.2217407  65.2727814  23.6190968  20.3294086  65.1910706  22.3992386
  48.4605141  64.3223724  50.2215881  48.2594414  64.6702881  49.3528214
  47.8671799  64.7894287  50.8098488  83.7674179  61.8035355   8.0379581
  83.3056107  62.2572098   8.7430468  84.0302963  60.9675064   8.4229040
  66.8991089   2.7735615  61.8058128  66.4231949   2.5715942  61.0002441
  66.2593460   2.6325841  62.5037117  19.4689064  67.3898239  77.3178787
  19.5335178  66.8197479  78.0840836  19.5950203  66.8035431  76.5718231
  17.7694244  52.9928703  28.8472328  17.8237362  53.0818214  27.8957233
  16.8521099  52.7774811  29.0156822  29.1968479  67.0806732  19.2968655
  29.4816208  66.3214111  19.8054466  29.4212608  66.8610992  18.3926201
  46.0845032  32.7038918   8.5021954  46.3620529  31.8277359   8.7696810
  46.4844284  33.2887421   9.1458120  56.7718506  10.7014017  24.7324505
  56.1839218  10.4394941  25.4409523  56.9314804  11.6326895  24.8855934
  49.1633987  13.2260799  65.8558350  48.9226646  13.1089430  64.9368362
  48.4707947  13.7798948  66.2161407  65.3976517  41.4495125  20.3288918
  66.3292465  41.3799438  20.1202755  65.2434540  40.7561150  20.9704933
  62.5351562  30.0758572  32.5459633  61.6916084  30.0707378  32.0936012
  63.0455093  30.7474442  32.0934792  65.6434860  65.5248718  19.8391399
  66.5809174  65.5914536  20.0208511  65.3204269  66.4226990  19.9151382
  36.8224983  47.5706863  26.8407707  36.6008873  46.8575554  27.4395714
  35.9804497  47.9692497  26.6209278  80.3329315  49.3968468  61.6044006
  80.3577194  49.4879913  60.6518745  79.6147385  49.9660606  61.8808632
  14.8928223  26.4916706  82.3931351  14.8671188  27.4431171  82.2915344
  15.6570244  26.3304520  82.9465256  67.1715088  34.5479202  47.1468086
  67.9788666  34.9471970  46.8227997  67.3495407  34.3618622  48.0687180
   6.6588798  44.1058731  70.5199280   6.5097632  43.1933594  70.2723083
   7.1539173  44.0543442  71.3375549  55.4816971  52.1846275  66.0236130
  54.7975464  51.6035004  66.3559647  55.8952751  52.5417137  66.8095322
   9.8254662  43.8493614  14.8017902  10.4140339  43.5790024  15.5065794
   9.5858622  44.7495651  15.0219126  23.2272854  32.8503761  10.9757395
  23.0874710  33.7650566  11.2207823  23.3655434  32.3979416  11.8078556
  67.4348831  18.1334877  10.5090408  67.9726105  17.3416786  10.4978008
  66.7841797  17.9714355  11.1920900  83.1803513  40.7264824  29.2372055
  82.4315414  40.1418648  29.1200237  83.0798035  41.3851662  28.5499973
   6.2181530  31.9146824  72.7319336   5.5875978  32.4401550  73.2243881
   6.6740923  32.5465431  72.1759644  34.3458443  41.6343803  85.2394257
  34.2081032  41.2574921  86.1084518  33.7896423  42.4132729  85.2252502
  10.0729704  67.7551193  50.2337341  10.3396168  66.9176712  49.8544998
  10.0664377  68.3619919  49.4935417  15.7938929  37.7476349  65.8438263
  14.9757977  37.2508240  65.8323975  15.8617840  38.1175537  64.9636078
   8.1451216   3.9789872  70.7279739   7.4851117   3.8973598  71.4164200
   7.7320313   3.5969131  69.9536285  45.1797752  68.1396790  40.0362587
  45.3852272  68.7908325  40.7070961  44.5851364  67.5279770  40.4703751
  12.5671101  46.7344208  73.9900131  11.8279114  46.8366928  74.5894775
  12.1637812  46.5513573  73.1414566  56.4657822  10.7436199  54.2611084
  56.9473381  10.2033873  53.6346245  55.7640152  11.1406670  53.7452507
   1.5003164  11.7179232  25.9627819   1.0056570  12.4871302  26.2453880
   2.4150314  11.9484072  26.1252804  24.2160320  16.2577763  85.4530869
  24.1586208  15.3032179  85.4949799  25.1359005  16.4339523  85.2555084
  65.9803925  52.5083466  43.9507446  66.7541199  51.9606743  44.0835457
  66.2537003  53.3813782  44.2324333   1.9461468  39.0626526  41.1785927
   1.9772241  38.3144073  41.7747421   2.8069379  39.0713196  40.7600288
   3.8728025  45.1794205   1.9917790   4.5153756  44.4719124   2.0443692
   4.3966618  45.9803963   2.0073197  43.8595085  45.1564598   5.1123786
  42.9464760  44.8765717   5.1777058  44.3646088  44.3479385   5.1983895
  51.5489349  37.2803192  37.1480904  50.8015327  37.0203667  37.6866493
  52.3033867  36.8711929  37.5719376  41.7342033  26.6552830  60.0845070
  42.5253525  27.1900673  60.1502609  41.1299667  27.0426102  60.7178383
  49.6145668  49.7603226  18.5683956  49.2500648  49.5565033  19.4296894
  48.8520164  49.9698219  18.0290794  15.3007002  29.4373646  60.2370186
  15.1719179  29.3918686  59.2896118  15.6093044  30.3297157  60.3942032
  64.4996414  42.0200806   7.9847488  65.3146820  41.5447006   8.1458426
  63.8384743  41.5366402   8.4801006  70.7511749  44.8074989  17.5086880
  70.5398560  44.0818901  18.0961132  71.4927521  44.4902382  16.9932842
  71.7407532  44.7749748   0.2493035  72.6038132  45.1840248   0.3129388
  71.7626953  44.0678978   0.8941217  82.5034332  12.2523661  19.4833241
  82.8033676  13.1124678  19.1892147  83.0170822  11.6304617  18.9679279
  65.1623993  21.2327156  56.8196449  65.3298187  20.3035965  56.9775734
  64.6234283  21.2479153  56.0287552   2.4428170  35.4181824   1.3908722
   3.0649192  35.7498283   2.0383530   2.9291797  35.4240952   0.5664645
  13.9801636  67.8624420  34.9747849  14.8893633  67.7139664  35.2346764
  13.5115185  67.9824982  35.8007317  66.3042984  47.2580490  72.0495453
  66.4589920  47.1348152  72.9860916  67.0461655  46.8267593  71.6254654
  85.2888031  12.2192612  12.3257465  85.2176514  12.4995461  13.2382202
  85.9926300  12.7577591  11.9639702  54.9440346   2.2657917  58.6362343
  55.5982513   1.6541636  58.2983856  54.4328499   1.7495763  59.2594872
  59.9872131  22.0244255  60.0435867  59.6379242  21.1994896  59.7063789
  59.4042053  22.6948147  59.6873360   2.2886150  68.6660919  16.1607628
   2.9768448  68.5549927  15.5048456   1.8864986  69.5077133  15.9458103
  68.9495773  45.3471756  86.9651184  68.9729309  45.3279037  87.9218369
  68.2051697  44.7922363  86.7324753  14.3473206   9.6234732   8.5919132
  14.3578863  10.1203499   9.4099798  14.8679180  10.1498928   7.9852061
  62.1391525  19.8423138  62.8694077  61.9107132  20.7602997  62.7232971
  61.7441254  19.6288147  63.7147484  46.1782570  60.3349152  26.9559784
  45.7469864  60.9143715  26.3279133  46.8369942  59.8701859  26.4399128
  66.8174973  13.7602234  29.4077511  66.7914963  13.6752605  28.4546852
  67.3189163  14.5606155  29.5632706  33.2616158  64.8080750  74.6831818
  32.4021339  64.3882523  74.6474609  33.1587067  65.6086349  74.1686401
  15.3462524  19.8388615  66.7621384  16.2953930  19.7851200  66.8738251
  15.0628147  20.4712505  67.4224243  79.4578705  49.1491280   5.7977848
  79.6498413  50.0413475   6.0864353  78.7454376  48.8608627   6.3683772
  55.6317444  46.6530266  34.2052765  55.3184929  47.3648415  33.6472206
  56.0126495  47.0939560  34.9646988  81.2836838   9.8705702  40.6544533
  80.5324936   9.6357279  41.1992455  80.9046097  10.3492136  39.9172745
  69.4273529   8.2366953  80.5030212  69.0544281   7.9800234  81.3463974
  69.7348404   7.4163070  80.1174774  58.9513054  10.0758219  26.4850731
  58.5320206   9.9684668  25.6313133  59.7020683  10.6442633  26.3134212
  18.8744907   3.5180571  17.0739460  18.1038456   3.6402693  16.5195065
  18.5257301   3.4839935  17.9646969  23.0199509  64.7280350  53.4414101
  23.8314304  64.2316132  53.3351173  22.8353767  64.6872253  54.3797607
  33.7257576  24.1536942  82.1529846  33.2322693  23.3457813  82.0116501
  34.6145210  23.8596554  82.3526611  82.0195770  34.1699333  61.0771179
  82.8897781  33.8174934  60.8906784  81.4443512  33.4049034  61.0681419
  17.9642868  23.8357487  24.8685551  17.5613956  24.6928616  25.0073566
  17.3147507  23.3443871  24.3656635  73.2213745  67.3542023   3.1622076
  72.7718277  68.0262146   3.6745870  73.7308197  67.8453140   2.5176086
   4.0566297  63.3318787  20.5238705   4.0641866  62.8692627  21.3618202
   3.5030613  64.0974274  20.6779118  55.2749977  35.0869904  18.4857616
  55.0480576  35.9707451  18.1964417  54.6802673  34.5157433  17.9997540
  22.5140972  48.4203873  23.4711018  22.5369701  49.3507385  23.2471466
  22.0965595  48.0028763  22.7177238  31.4661350  59.0753632  32.6075211
  30.5899563  59.2805748  32.9337578  32.0499840  59.2984619  33.3324890
  13.6211815  67.9985275  88.7954102  13.1455650  68.7292099  88.4002838
  13.2519751  67.9201202  89.6750488  34.7666626  29.3459759   1.3475657
  34.0906448  29.9470730   1.0346524  35.3900223  29.9062805   1.8098561
  31.0527153  33.3636131  82.9592285  30.4395237  32.6702728  82.7152863
  31.4741936  33.6110802  82.1362152  41.0823822  57.7185783  14.1399689
  40.3880577  57.2458153  13.6810131  40.7483482  57.8300133  15.0300455
  79.4451065  17.6352196  85.6409454  79.6947861  17.5104771  84.7253418
  78.7523422  16.9917374  85.7900925  67.8088684  25.7462139  35.0492134
  67.7397614  25.1260128  35.7750282  68.1453857  26.5476055  35.4501686
  21.9788361  26.6901894  42.6449966  22.8839798  26.4591599  42.8537407
  21.5185318  26.6358280  43.4824905  23.6289635   0.3689306  11.6943445
  23.9263363  -0.1844592  12.4165363  24.3959179   0.4567677  11.1283960
   6.7093592  26.4842930  77.3127823   6.1149302  26.9800396  76.7496490
   7.0563564  25.7948437  76.7466660  83.0575485  28.9014511  16.4035301
  82.4964447  28.2034035  16.7413464  83.4412155  29.2996082  17.1848774
  46.6230164  34.2935715  63.8996429  46.7745819  33.3735504  63.6832542
  45.7027893  34.4423103  63.6821671  62.0582886  30.1805782  40.6198006
  61.4976044  29.7238045  39.9927292  62.5505562  29.4833488  41.0531311
  40.5138474  48.3278427  76.3876419  39.9201317  48.7570267  75.7715759
  41.3211479  48.8397713  76.3383942  66.2986298  51.1882133  26.4588947
  66.7827911  50.3844185  26.2698708  65.8235550  50.9970932  27.2676029
  63.5474625  48.6319046   1.3826742  64.1065903  48.3524055   0.6577704
  63.1447220  47.8235931   1.6999522  73.3397064  49.8358765  61.4394226
  74.1524963  50.3211403  61.5813141  73.4197464  49.0650787  62.0012932
  68.5305099  15.6287241   9.8587265  68.4087982  15.1602917   9.0328999
  69.2760849  16.2071934   9.6983309  28.5045853  58.9927101  21.0189629
  27.8719025  58.4702721  21.5119171  28.0880756  59.1337051  20.1687450
  13.1345882  49.6405029  82.0381088  12.8115349  50.4876633  81.7312164
  12.6399899  49.4717941  82.8400726  40.4207306  67.1572113  46.2543869
  39.9271545  66.5649719  46.8217201  41.3198853  66.8311310  46.2921524
  42.5148239  27.0072803  84.3283691  41.8377533  27.5954571  83.9939270
  43.3179817  27.5273800  84.3025818  54.4936028  64.7709122  78.6245422
  53.8213081  64.3199692  79.1353226  55.1457672  64.0955887  78.4378586
  85.1792450  39.1576958   8.8617067  85.8783493  39.4792480   8.2924175
  85.1217880  39.8083763   9.5613823  66.4883881   4.5087590   4.8736620
  66.4896774   5.4658461   4.8590016  65.8121567   4.2604742   4.2433510
  74.8877335  36.9256439  63.5320282  75.2198334  37.2262764  62.6861191
  74.4317017  37.6853981  63.8940239  82.8764420  33.2010689  37.0013809
  83.0492630  33.2590065  37.9410667  82.3960419  34.0031853  36.7962990
  39.8291969  22.1631584  77.0543137  40.6135674  21.6893559  77.3309097
  39.8825951  22.1775627  76.0987167  54.5233841  65.6727600  64.1128540
  54.1291847  65.8089447  64.9744186  54.2554779  64.7881470  63.8640099
  58.9168587  44.8928146   0.5835947  59.1034470  45.8307724   0.6242589
  58.0505257  44.8035088   0.9807366  43.9619522  43.8160934  15.7164965
  44.3191757  42.9304771  15.7821198  44.6895752  44.3441086  15.3878689
  62.6479568  66.1751862  58.0482750  61.9562950  65.6731796  58.4793510
  62.7739563  65.7360001  57.2071609  64.6293259  34.9770393  19.4945297
  64.6894531  34.0294533  19.3732891  64.9789581  35.3449974  18.6829910
   2.2885909  64.8360138   0.1338012   2.5157614  64.8697815   1.0630403
   1.7014142  64.0838852   0.0579599  45.3852463  39.9741287  23.3528652
  44.5660439  39.4816589  23.4039764  45.3283577  40.6084595  24.0674438
  44.2811584   2.5088906  72.0334320  45.1414986   2.9121301  71.9174881
  43.7686424   2.8191848  71.2869263  40.7056198   3.9006662   9.6505251
  39.8320580   3.7424281  10.0084143  41.2901039   3.3901553  10.2108698
   2.8033826  69.6946640  87.2304764   2.1442568  69.3937607  87.8559647
   3.4811735  70.0985031  87.7724533  64.7608948   7.0324645  18.8122768
  65.0566940   6.2299438  18.3825130  64.0777969   6.7425742  19.4169006
  54.5110626  21.5510979   4.2731380  54.1975517  20.6471138   4.3006005
  53.7323914  22.0685215   4.0677733  46.6567726   1.6774545   7.2591572
  46.8597412   0.7795200   6.9969578  46.1763535   2.0413303   6.5155001
  43.7989502  54.3997345  61.0835571  44.4639511  54.1320457  61.7178688
  42.9975433  53.9685898  61.3803596  65.7974472  61.4799690  40.8574448
  65.3808823  61.9013710  40.1057014  66.2945099  60.7541656  40.4801178
  46.0155144  31.5116310  16.1555920  46.1390114  30.8790169  15.4479322
  46.8861542  31.6140480  16.5399437  13.4095926  64.7582397  47.9871712
  13.1412716  64.6145782  48.8946915  14.3207150  65.0449829  48.0493240
  24.4775257  59.2131348  59.7649078  23.9195404  58.5119858  60.1014748
  24.3718643  59.1680450  58.8146248  80.0843506   1.1759140  73.4145203
  79.2308502   1.4148322  73.7760315  79.9788666   0.2675845  73.1315994
  39.9968719  46.7739258  24.8047581  40.2538109  47.6339378  25.1373177
  40.8200111  46.2917023  24.7264538  12.9529667   0.4375644  55.3945427
  12.0669565   0.0757563  55.3768616  12.9557457   1.0275770  56.1482735
  10.3694935  51.4075356  79.0985565  10.9557304  51.5737305  78.3603592
  10.8462124  51.7347565  79.8613739  62.8281288  39.3283348  27.9777679
  62.4406929  40.1754875  27.7576389  63.6471825  39.3037376  27.4830170
  29.3035793   3.8004944  74.7395782  29.1128635   4.7372847  74.6917953
  29.1360493   3.5682516  75.6529465  73.3659363  22.7390079   2.7233231
  72.8852921  22.0489063   2.2661881  72.8729019  22.8791065   3.5317311
  86.2044449  25.3466454  84.7093048  86.0361862  24.5860195  85.2655182
  86.6323318  25.9770813  85.2887039  29.8406677  19.2704735   0.3585869
  29.7680683  20.2088528   0.1842169  29.4100704  18.8541050  -0.3880427
  72.7430420  13.8409519  76.0420609  73.0548553  14.1048965  76.9077072
  73.4292068  13.2644405  75.7058411  50.9240875  54.0780945  14.5640154
  50.3753929  53.7892532  15.2932167  50.3039551  54.4071198  13.9133186
  43.6720390  16.4211788  64.4531631  42.9466095  15.7973928  64.4236755
  43.5563393  16.9602585  63.6707077  33.2913628  46.2711601  16.2695198
  33.6517029  47.0437660  15.8342419  32.5597496  46.0025597  15.7137995
  15.9030552  53.6996231  73.1552811  15.9474106  54.2695198  72.3875046
  16.0512772  54.2856674  73.8974533  35.8652306  48.5545578  41.2616196
  36.6148682  48.8144798  40.7261581  36.2348213  48.3960419  42.1302452
  13.8039532  47.7421570  42.0579300  13.8755159  47.0889282  42.7539215
  13.4792109  47.2524605  41.3023071  60.5858841  59.9947472  77.1666031
  60.4413605  59.1284676  76.7859344  61.5055733  60.1865349  76.9832382
   6.0634885  42.5033989  88.2864380   5.9995594  42.8585701  89.1730042
   5.1806703  42.1900978  88.0896988  29.5263634  62.0592461  72.4877701
  30.4208260  62.3205376  72.2689209  29.4655647  62.1832771  73.4349518
  46.1528015  28.7236023  61.3246727  45.9413986  28.1359768  62.0500946
  47.0539055  28.9985390  61.4939461  30.4405365  50.0157967  40.0975304
  31.2735424  49.9145317  40.5580521  30.6784801  50.4001999  39.2538223
  42.8037491  68.8093185  77.8660889  42.6577415  68.5540085  78.7769852
  42.2961273  68.1780777  77.3561096  74.2435455  22.0315533  53.1355705
  74.4874649  21.1956959  53.5331573  73.8559723  21.7922783  52.2936897
   7.8708391  30.2313576  69.2117844   8.6553020  30.7366905  68.9985046
   7.2781658  30.3873978  68.4765167  48.7381363  61.5654755   0.9575485
  49.6489830  61.5638084   0.6632817  48.7803040  61.8657227   1.8654612
  79.9898224  23.4704094  80.8105011  80.8170471  23.8224373  80.4818573
  79.8669968  23.8986759  81.6576920   2.9508338  45.4350433  40.9345169
   3.2665744  45.2251625  40.0556030   2.0426168  45.7076912  40.8039856
  65.6791840  44.1253738  68.9197006  65.2278061  43.7389984  69.6701660
  65.4736862  45.0588341  68.9711990  22.7981377  31.9036236  86.5689011
  22.2012138  31.1788216  86.3829575  22.7012386  32.4918518  85.8200150
  77.7629395  66.8680267  38.0891876  76.9641953  67.3579636  37.8937187
  78.4204941  67.5415115  38.2631569  67.1186295   4.7518234   1.1556637
  67.6751022   4.2418776   0.5669998  67.7327957   5.2607722   1.6848145
  62.8315926  65.9784927   8.9054766  63.5800095  65.9734497   9.5021992
  62.8697052  66.8354416   8.4807138  79.0430603  56.0620995  25.5230942
  78.9056702  56.7401505  26.1846123  78.5778656  55.2978363  25.8632736
  20.1920986  51.8883591  49.6914635  20.0102291  51.2602844  48.9924126
  20.0470943  52.7442513  49.2881584  31.3128338  54.0469818  75.5900421
  32.0768394  53.4703369  75.5926361  31.5574627  54.7660561  75.0075302
  81.9545441   6.1442738  23.4692707  82.0069122   5.3066893  23.9296417
  81.8542252   6.7940750  24.1649189   0.8208070  14.0823574  55.1588058
   0.4320755  14.0022326  56.0298424   1.5136859  13.4221039  55.1440887
  22.2289696  35.0420227  82.3848495  21.8259029  34.8246422  81.5443039
  21.6255589  35.6681023  82.7850418  49.6763496  56.0595322  89.0394974
  48.7787399  55.7325058  89.0993423  49.6157303  56.8215485  88.4634018
   1.0910631  10.9576807  86.8786087   1.6593053  11.6352110  87.2450562
   1.5933994  10.1481209  86.9708252  72.0437012  34.1882706  76.1782837
  71.9905548  35.1193390  76.3939667  71.9559021  33.7419281  77.0204773
  76.2148666  63.5311584  76.7607040  76.0864105  62.7600555  77.3130875
  76.8051147  63.2340622  76.0681992   5.8386626  27.9693375  48.1719589
   5.6328058  27.4571285  48.9539452   6.3934560  28.6811085  48.4910507
  31.5525150  39.6096191   5.4997320  32.4167557  39.9697189   5.6988516
  31.0030689  40.3777809   5.3439455  11.1514769  34.4692039   7.8822975
  11.3010464  33.5259857   7.8174882  10.5577211  34.5669670   8.6266956
  14.8388262  21.3226624  87.1985626  15.4341764  20.6599731  87.5487595
  15.2685366  21.6335964  86.4017563  53.9360695  19.1337891  88.8988495
  53.4559174  18.5421257  88.3195190  53.2571831  19.5598450  89.4221268
  85.8116379  16.4538326  66.0184784  85.2382278  17.1839733  65.7854004
  86.3772507  16.8037815  66.7068481  24.6222916  31.3290882   8.7227812
  24.8402977  31.2656231   9.6526613  24.0088997  32.0620308   8.6700640
  20.6661625  65.8645782  74.1833801  20.9847641  66.7174835  74.4788055
  21.2423477  65.6328354  73.4550018  48.0913734  15.6839647  25.7754574
  48.0611458  14.7745838  26.0726852  47.6952095  16.1827660  26.4899387
  86.2356949  68.4216614  15.5163927  86.6795959  67.6456985  15.8585405
  85.6632462  68.0855637  14.8267775  37.0215874  44.1137886  46.6470070
  37.9031906  44.4083061  46.8756218  36.8676605  44.4740486  45.7736511
  15.8974371  48.5465012  25.1680336  15.4441843  47.9861336  25.7979393
  15.7074251  48.1523438  24.3167019  18.1136780   4.1789470  26.6748848
  19.0226288   4.4445457  26.8145161  17.9695911   4.3021197  25.7366428
  54.9660645  54.8943481  23.7602024  55.0817947  54.3405304  22.9881115
  54.0193176  54.9161758  23.8995724  63.5537300   1.5739490  22.9736042
  64.0907211   1.2516501  22.2497292  62.7276459   1.0977660  22.8895226
  21.3900070  60.8289604  10.6270304  20.7334309  60.8213997   9.9305525
  20.8809757  60.8892174  11.4354162  69.4315109  16.0807762   5.7701297
  68.6753998  16.4440498   6.2311697  69.1805801  16.0994816   4.8465948
  26.9979973  70.3929672  10.6578999  26.7433357  69.6238403  11.1676369
  26.3353519  70.4544754   9.9698963  65.6328430  59.9011688  16.3002815
  65.4384308  60.5018082  17.0197735  64.8447418  59.3643608  16.2168198
  50.0220070  59.5485001  45.9857445  50.0712395  60.0607567  46.7928352
  49.8713837  58.6504707  46.2808495  58.0180779  64.5790634  77.1671600
  58.7559357  64.8126678  77.7303925  57.4730492  64.0096817  77.7102814
   6.6462536  44.1919289   1.6659521   7.4946074  43.7527542   1.6055346
   6.7391791  44.7916222   2.4062006  22.1840839  36.4619064  63.6272202
  21.4071026  36.9666252  63.3868217  22.3528481  36.7014923  64.5384521
  58.2358971  16.0590172  85.5920105  57.8669243  15.2014351  85.3807144
  59.0280113  16.1171703  85.0577774  62.8335724  46.7072029   2.9820104
  62.4240494  47.0550652   3.7741668  63.1961479  45.8630676   3.2507286
  71.2982864  41.4489059  46.3989449  70.9832993  41.0521660  47.2111130
  71.0053787  42.3588905  46.4475861  81.1122284  71.5790939  61.7052917
  81.9607468  71.2143784  61.9567833  80.5916367  71.5500565  62.5080185
  55.9389000  61.9055367  69.2499008  56.8585663  61.6799240  69.1100998
  55.6586456  61.3355713  69.9660187  57.9150085   8.3500414  12.8009167
  58.2631950   7.6565599  12.2404861  58.0302925   8.0187721  13.6915350
  68.8379288  40.6631432  14.1694517  69.5004730  40.4116478  13.5260048
  68.6745071  39.8637428  14.6699324  54.8708496  15.5929317  32.1315536
  55.7236862  15.9431257  31.8741341  55.0157509  14.6509800  32.2207909
  19.9666138  17.1583557  73.2756729  19.9336395  16.7194023  72.4256897
  20.8696117  17.4668007  73.3510742  63.4028091   4.5816379  58.2810860
  63.4619827   5.2368565  57.5858040  62.6704102   4.8737445  58.8237648
  61.9515877  57.6957970  61.4990387  61.2847290  57.0984077  61.8376541
  61.4539452  58.3921547  61.0704689  72.9105377  12.1450958  27.8668098
  72.2055283  11.7733536  27.3367081  72.4779968  12.4387255  28.6686344
  34.4834976  26.1889896  65.3703537  33.7121735  26.5804100  64.9603729
  34.9186745  26.9201260  65.8088608  18.2581844  64.0458298  24.6688290
  19.0829716  64.1163864  24.1882286  17.7514935  64.8078842  24.3881760
  81.3651810  26.7698441  21.7393665  80.7935867  26.9555721  20.9943733
  80.9689331  27.2451706  22.4696255  13.3260612  21.8684330  73.6017151
  13.9799070  22.1052799  74.2594604  12.5790291  21.5520134  74.1097107
   3.8839536  59.8251495  60.3532677   3.7522309  59.5543976  61.2618790
   3.7615051  59.0237236  59.8443871  63.6532516  68.1594467  71.8935852
  63.7221642  69.0847397  71.6583862  62.7258186  68.0314026  72.0928497
  63.6123390   8.1090775  83.9893112  63.9607201   8.7459154  84.6132507
  63.6210823   8.5675125  83.1490784  20.4324169  15.8109617   3.6192851
  19.5112991  15.8357573   3.8784392  20.9020424  16.1768379   4.3688297
  47.7853241   6.7088747  16.8061657  48.2586441   7.5094547  16.5797329
  47.9424858   6.1206822  16.0675430  81.8561249  29.1156197  14.0913258
  82.3765106  29.0388508  14.8910322  81.1322784  28.5019836  14.2167625
  12.1796608   2.9450195   9.4458809  12.0422678   2.6660578  10.3511629
  12.3251343   2.1309435   8.9638548  77.4810638  58.6692581  81.7470398
  77.9244461  57.8625526  82.0094833  77.4672928  59.2041016  82.5407562
   7.7049136  41.1174660  59.5433464   7.4600849  41.3179550  58.6399651
   7.8344488  41.9733162  59.9519615  11.0317688  60.3349152  62.6274147
  10.4656458  61.0433426  62.9337997  10.4294167  59.6912003  62.2545433
  74.0534592  27.0641384  85.3427277  73.2145157  27.0318184  85.8024597
  74.4067307  27.9293900  85.5495377   0.4736786  26.5096054  53.8229637
   1.3283678  26.4777927  53.3931656  -0.0989900  25.9932690  53.2557983
  64.4852371  20.0519581  27.1017971  63.8525352  20.6490459  27.5010586
  64.6791000  19.4141178  27.7886810  79.0365906  38.9376450  54.4684029
  78.4640198  38.1713600  54.5029678  79.6943359  38.7156334  53.8093758
  44.4576073  24.7780304  15.6836605  45.3414154  24.9299564  15.3489370
  44.5602722  24.7684059  16.6352901  49.8747749  57.7241745  30.3750820
  50.5967369  57.2561874  29.9555588  49.9873962  57.5500908  31.3095570
  44.3551178  13.0851603  43.9699936  44.2611923  12.2813520  44.4811707
  43.9312668  12.8886137  43.1345596   2.3751895  57.0368652  61.5399055
   2.7584426  56.2129669  61.8408127   2.2963521  56.9321594  60.5917206
  16.6616440  47.0483513  72.2859879  16.9228420  47.2999916  71.4001617
  17.4737167  47.0755692  72.7919769  49.1388206  35.4651184  64.8135757
  48.3301582  35.3282471  64.3200531  49.8104210  35.5899162  64.1430435
  45.3368759  48.9993973  65.4136047  44.8480530  49.5169678  64.7737579
  45.0030060  48.1087265  65.3065186  79.0939255  26.9632549  24.3349342
  78.5541000  27.2063866  23.5827999  78.4976807  27.0086670  25.0823689
  14.3323145  63.8799744  39.4937401  14.4070702  63.7249756  40.4353447
  13.3998709  64.0425186  39.3510475  61.3979912   1.3221910  32.0594215
  61.4138031   1.3923057  31.1049252  61.2499237   0.3918075  32.2288170
  50.9428062  30.4910736  60.0569649  51.6018944  30.8243217  59.4480476
  51.0928154  29.5459499  60.0785942  23.5663033  50.0211067  53.5644569
  24.4026718  50.3690834  53.8737030  23.0352077  49.9351883  54.3561516
  47.1985397  66.9927063  28.3005028  47.5740852  67.1535263  27.4348621
  46.2902794  67.2854462  28.2257004  56.5913887  12.8595314  36.7994423
  56.2111053  13.7075300  36.5702858  55.8815613  12.2329063  36.6590118
  66.1365051  29.0307121  82.8690491  65.9755402  28.5215530  82.0746384
  67.0182800  29.3843708  82.7523041  19.5652275  60.9204941  31.5725212
  18.7140369  61.1761513  31.2170658  19.9801445  60.4242249  30.8669796
  82.0004196  47.1443367   2.1178565  81.8237152  47.2307701   3.0546262
  82.9411926  47.3008461   2.0361397  65.5120392  49.2133369  15.7140779
  65.3642502  48.2799606  15.8663750  66.2415237  49.2424431  15.0950165
  62.4222794  63.0295944  65.2294312  62.9420738  62.6401138  64.5263290
  62.4163170  63.9662476  65.0322418  37.6713600  32.6782761  28.8994923
  37.3280029  33.4747581  29.3044014  36.9206619  32.2992325  28.4423103
  37.6381264  43.0070381  53.7200432  37.4220963  42.9169693  52.7919006
  37.3851204  42.1690140  54.1072655  44.1954994   8.9043474  52.8772812
  44.4149132   8.2301931  53.5204010  43.4251785   9.3407803  53.2411003
  53.6971970  48.8177528  80.6493301  54.4515076  49.3279076  80.9442749
  53.0051422  49.0294266  81.2758179  12.2711344  29.0681190  17.1308632
  11.6008615  28.6388931  17.6625881  12.7472286  28.3475323  16.7181625
  44.8247261  69.1166840  83.6774216  44.3562241  68.3030243  83.8636780
  45.5375938  69.1341553  84.3159714  43.4960632   3.4895566  16.5443420
  43.8832703   4.3230610  16.2768097  42.8000336   3.7336588  17.1544113
   0.9644307  22.6976032  25.3542175   0.0244523  22.5264339  25.2961311
   1.3356042  22.2583332  24.5890331  84.5276108  14.5898399  67.2176743
  84.9500351  14.5109549  68.0729904  85.1138916  15.1526766  66.7119827
  57.5130081  51.3766632  36.1472931  57.0381393  50.7534256  35.5974693
  56.8942528  52.0937233  36.2858620  72.4108505  60.2348022   8.7422667
  71.9052811  59.8343697   8.0349607  71.7787094  60.7817650   9.2085896
  84.5301056  27.5879459  69.4208603  85.1097031  26.8399563  69.5651169
  85.0402451  28.1839733  68.8724594  58.3544388   3.5520165  78.5719910
  59.0802917   4.1695776  78.4826202  58.0986633   3.6145887  79.4922562
  13.6404009  22.2363396  16.4831791  13.4920835  22.9423428  15.8540592
  13.4402370  21.4364090  15.9970942  46.1663742  11.1929884  66.9186172
  45.2276649  11.3620663  66.9990692  46.5276833  12.0083876  66.5710373
  44.9772873   3.8968804  11.7838497  45.0727463   3.1281939  11.2214966
  44.5816002   3.5584052  12.5870285  49.9766541  54.8177299  44.0583534
  49.0806694  54.9878311  44.3490601  50.4907722  54.7984848  44.8655357
  40.1679955  44.7957573  58.3733025  39.2913322  44.8765717  58.7490196
  40.2169609  43.8883553  58.0725403  62.9839134   1.8532541  48.6978226
  63.1232414   2.4583111  49.4263344  62.8506813   1.0022905  49.1153679
  60.0625839   0.2231781  36.4411011  60.5225830   0.0569087  35.6183090
  60.2785568   1.1303174  36.6571693   7.2381620  55.7498436  28.1783085
   8.0095358  55.5478477  27.6487694   6.5285325  55.2579155  27.7651901
  38.8785553  68.9718704   6.5095301  38.6436119  68.8190613   7.4247808
  39.7781792  69.2969894   6.5442524  85.0366135  29.9781723  10.8863935
  85.2604980  29.7469101   9.9849367  84.3909302  29.3220215  11.1486855
   5.6121745  29.7548122  61.2320175   5.5141315  28.8763924  60.8645935
   6.5294089  29.8005562  61.5018692  81.3332977  57.0473366  52.3891792
  80.7929916  56.2600250  52.3225594  80.7768936  57.6821938  52.8404007
  10.7522230  58.7705688  83.1573257  10.8130922  59.7232475  83.0871506
  10.9239559  58.5869827  84.0809250  60.6552849  71.5116882  41.0353775
  61.2494507  70.8097229  41.3007965  61.1607666  72.0291138  40.4084854
  45.1478958  13.4449873  47.7334442  45.7654572  13.6850109  48.4242706
  45.4213181  12.5688906  47.4615517  36.1486473  61.2225456  52.5336418
  35.3233261  61.7014122  52.6095352  35.9560089  60.5079842  51.9265823
  84.2957382  60.7531509  49.6940269  83.5864792  60.1906586  49.3829231
  84.7492523  60.2253532  50.3512840  79.7738495  21.6071606  49.7860107
  79.2900009  21.9982491  49.0585670  80.5247269  21.1810627  49.3726578
  85.3040848  29.2649784  76.4405365  85.4165268  28.6940556  75.6805191
  84.4007568  29.5748672  76.3757629  70.6540985  20.3605061   5.2628183
  70.7018814  20.0907974   6.1799912  71.0942230  19.6585236   4.7834973
  13.8067560  51.5971642  22.3240547  14.0504656  52.4963417  22.5438709
  14.4273310  51.3407669  21.6418686  60.2557182  40.7519646  58.8147469
  59.7592201  40.7660408  57.9965019  60.5216980  39.8382568  58.9178238
  26.5921440  63.1931267  58.3525314  27.4948883  63.4657745  58.5166817
  26.0994492  64.0123901  58.3046837  25.5471115  61.3491211  39.4401970
  25.0615788  60.7591133  40.0167236  24.9203815  61.5851784  38.7562981
  68.4414825  20.9567661  16.5969944  69.1721878  21.3388786  16.1108894
  68.8567734  20.3940506  17.2505379  66.9902802  18.9822712  48.5499649
  67.8589859  19.0745201  48.1587219  66.4303970  19.5573597  48.0283966
  16.8618889  62.7481651  31.5207081  17.0989094  62.6197968  32.4391708
  16.4988880  63.6332779  31.4884796  42.0397453   8.8674374  88.5081787
  42.2027359   9.4382811  89.2590485  41.0900421   8.8911257  88.3909912
  47.7084236   3.2668529  30.5864410  47.5787811   4.0800581  31.0744171
  47.3639374   2.5843713  31.1624451  43.0807381   6.2282014  11.0038805
  43.5434113   5.4769702  11.3751163  42.3017807   5.8513975  10.5946369
  46.8739662   3.7776413  19.5137882  46.2594147   4.4365034  19.1905823
  46.8247375   3.8513012  20.4668789  29.4462929  69.4809494  16.4824219
  29.5416508  70.2522125  15.9235916  29.8323612  69.7417984  17.3185673
  24.8436432  54.2594185  63.5957909  24.9461098  54.9897804  62.9856224
  25.7360382  53.9498978  63.7509003   6.6687088  55.7787056  13.3112583
   6.0090895  55.9659996  12.6433849   6.6795239  54.8237648  13.3760509
  28.2606525  33.9671059   2.6356452  28.7546234  33.1474762   2.6149316
  27.6163101  33.8762321   1.9336506  16.1246529  27.0713863  59.6532822
  16.2861290  27.5345535  60.4752502  15.7282305  27.7289505  59.0817146
  80.5332184  32.0931206  62.5037079  80.8704376  31.7824821  63.3439598
  79.6143646  31.8249187  62.5004692  57.1060371   0.1489016  39.1111069
  57.1029243   1.1023449  39.1957703  56.2459793  -0.1228193  39.4315758
  16.0460682  43.9789352  40.5090408  15.6826143  44.4714012  39.7730980
  16.7781754  43.4907417  40.1323204   5.0140719  68.7739105  70.7802963
   4.7886038  69.6999435  70.6916504   4.2335234  68.3076401  70.4810181
  77.8794632  12.2241087  12.6229105  78.6763458  11.7562428  12.8725338
  77.2232895  11.9347782  13.2569151  31.9712982  64.8765335  38.5405312
  32.7570648  64.3507156  38.6899147  32.1495705  65.3477249  37.7266350
  64.0944672  28.4677486   4.8563886  64.8551865  27.9360161   4.6222796
  63.3845253  28.1211987   4.3159099  30.0619774  57.4571991  69.4630356
  29.1715736  57.7629585  69.2900543  30.5122681  57.5433159  68.6227646
  29.0576172   3.0719686  46.2918739  28.5469151   3.6483462  46.8603859
  28.9860554   3.4676099  45.4232101  26.2918072   6.7236853  76.0892792
  25.5845356   7.3480787  75.9276276  26.1709747   6.4554567  77.0001450
  65.1926498  40.7162437  22.8505287  64.6293259  41.4814720  22.7351093
  64.7044067  40.1469383  23.4452953  64.3937759  57.4651909  87.3919983
  64.1287613  58.1179962  88.0399551  64.3989410  56.6380196  87.8736496
  16.0441914  37.1046104  77.3561554  15.1248655  37.1138268  77.0897217
  16.5222969  36.8760185  76.5590363  20.4022350  64.1564178  76.5435944
  20.9460583  64.2426834  75.7606201  19.5869522  63.7672195  76.2272568
   8.3186064  37.3341751  55.1497383   8.7846966  37.6713486  55.9147911
   7.3925338  37.4267044  55.3734818  61.6390266  50.9374542  26.9385090
  61.5746727  50.8359642  25.9888821  60.7353401  50.8750420  27.2478428
  33.0867310  60.1102219  17.6314182  33.7564316  59.5513191  17.2372608
  32.2581215  59.6900673  17.4009609  22.6109753  18.3531647  84.4668503
  22.9525070  17.5571346  84.8741913  21.8417206  18.0609245  83.9778976
  50.1220589  11.0133724  84.2725677  49.5027847  10.4306593  83.8330536
  50.3897476  11.6337366  83.5945435   0.3560958   1.2231752  76.3156967
   0.9259370   0.5685938  76.7194748   0.1707256   1.8457266  77.0187607
  14.1256227  43.8281021  21.0408878  13.4133711  43.1992073  20.9250374
  13.7378893  44.5373192  21.5536308  76.7150497   0.6844882  66.9171677
  76.3794708   1.5017767  66.5488510  75.9626007   0.2961893  67.3635712
  46.0346031  16.5525074  68.6245499  45.6676903  17.0857620  67.9193954
  46.7889481  17.0529499  68.9356079  26.1201172  42.3132286  78.8878555
  26.6053772  42.5181961  78.0886459  25.7110500  41.4664879  78.7091904
  49.2326889   9.9350424  27.1939316  49.8370285   9.4255800  27.7337933
  48.5223885  10.1736374  27.7895641  65.0118103   1.0296572  39.1905060
  65.6238556   0.3972995  39.5670090  64.8936996   0.7393817  38.2860603
  52.7019424  51.6116676  53.8770599  52.1603928  51.5539284  54.6642227
  52.8704758  50.7010498  53.6349678  67.2219849  21.4315529  42.0707817
  67.8099442  21.7789707  42.7414818  67.6102371  21.7135391  41.2425423
  66.9073105  57.7490692  43.0213165  66.3708801  57.4289818  42.2960434
  67.5424423  57.0499001  43.1762352  75.5376053   1.7747170   1.1587911
  75.4560623   0.8311450   1.0200319  76.1968536   2.0541341   0.5235358
  45.6767464  53.1752357  50.7168465  46.6334572  53.1509399  50.7354012
  45.4086075  52.5997086  51.4331589  15.2914190  69.9306488  28.1699333
  14.7421885  69.3508987  28.6976299  14.9436531  70.8068161  28.3361263
   6.0665870   6.7648335  84.4143906   5.9717278   5.9024158  84.0100784
   5.5235224   6.7214270  85.2014313  33.3119545  67.6524658  46.7987251
  33.1905556  67.0989380  47.5701485  32.4431152  68.0143967  46.6245041
  85.4816971  34.7943192  70.4342728  84.5477524  34.8389587  70.2293701
  85.8348236  35.6286507  70.1253586  38.2110710  10.1449738  20.5085411
  37.6821404  10.2551699  21.2986813  37.7158318  10.5949898  19.8241062
  30.1265430  63.2046547  40.5334167  30.4770432  62.4871140  41.0611610
  30.9002228  63.6837196  40.2365150  37.3202744  12.3285055  88.6149521
  37.8771133  12.1503525  89.3728561  36.6212921  11.6771240  88.6728897
  48.7089615  20.0245190  22.3095112  48.5660286  19.7063427  23.2008953
  49.0901985  19.2781811  21.8470459  47.3770599  68.7268066  80.5445099
  47.9637833  69.0521469  79.8617706  47.9476357  68.5736313  81.2976456
  79.3375397  58.9158020  34.1955605  79.8928299  59.6878395  34.0867157
  79.6853561  58.4782295  34.9725990  26.8044071  69.5861588  72.5720901
  26.8562031  69.9312820  71.6807785  25.9135323  69.7902451  72.8565598
  18.9042053  20.6640530  76.2166901  18.6386013  20.5790482  75.3010178
  18.2867470  20.1127396  76.6973495  64.6108093  51.3445969  41.6556702
  65.2601852  50.6447830  41.7249870  64.9061813  52.0080490  42.2792206
   4.5776153  50.6570549  65.4852676   4.0455112  51.4441338  65.6019135
   4.4101725  50.3863602  64.5825348  81.3379745  38.2270164  68.8907471
  81.8808212  38.1206284  68.1095734  81.7225800  37.6302681  69.5327759
  74.0515060  55.6554260  12.1392012  73.1357117  55.4806061  12.3559752
  74.4922104  54.8152008  12.2658157  63.2371368  18.2079010  56.5916405
  63.8183670  18.1381340  55.8343201  62.6780052  17.4329319  56.5366402
  24.6685371  63.8960304  50.5540352  24.7701721  63.0453453  50.9809341
  24.9858131  64.5274506  51.1996918  46.3408470  53.3641586  43.5475578
  45.9498596  53.0242767  44.3524475  46.4948959  52.5875549  43.0096169
  13.0569582  59.0902824  42.0989418  13.1732540  59.2812729  41.1682281
  13.9198408  58.7986488  42.3932419  20.3891964  64.3467865   4.8878469
  19.9663544  64.2745895   5.7435484  20.5486774  63.4410858   4.6223207
  61.6845970  43.6789703   0.9329192  60.8857498  43.6926537   1.4600695
  62.1948738  42.9521790   1.2901583  64.6855698  29.6798687  61.1816330
  65.2822723  29.2336540  61.7825241  65.1698685  29.7316227  60.3576126
  42.9610176  38.5562553  42.6299858  43.9102554  38.6776237  42.6087151
  42.6042786  39.4247398  42.4436989   8.2523441  46.8947945  41.3041916
   9.0747938  47.2794914  41.0011787   8.4828053  46.4475250  42.1184845
  74.2852554  13.2759180  40.1278152  74.4264679  13.1094313  39.1958427
  74.3963547  14.2220087  40.2216339  48.1333427  23.3337231  61.2976303
  47.8075256  24.2337627  61.2957611  47.3739319  22.8045998  61.5416718
  25.9007244  61.8637466   1.2835120  25.0797882  61.4473991   1.5460953
  26.5823555  61.3154068   1.6720129   7.6587853   9.6669693  67.6152725
   7.1556993   8.8968792  67.8800278   7.0057087  10.2681990  67.2571564
  42.6977234  48.3312569  66.8654709  42.0123138  48.8210869  66.4110336
  42.8164787  48.7972336  67.6931152  67.9957809  70.2329407  17.0675869
  67.1095886  69.9811935  16.8077316  68.5668488  69.7498932  16.4702816
  70.9365387  34.7475128  79.6330261  71.3546906  35.6020203  79.5271835
  70.5624771  34.7713547  80.5137863  84.1877823  43.4839211  50.4076042
  83.5298386  42.9385986  50.8388405  84.8551178  43.6294823  51.0782089
  82.7283859  21.7095146  61.9852295  83.4299469  21.2782211  61.4973412
  82.9554062  21.5703011  62.9046364   2.6718307  47.3922157  48.8002548
   2.7616234  47.5513268  47.8606529   3.5650151  47.4504280  49.1394653
  64.9568787  22.7915001  12.5183220  65.3799286  23.2769222  13.2265778
  64.8373413  21.9095135  12.8705168   3.9259138  50.1756058  57.6339798
   4.7098594  50.5261040  58.0568390   4.1476808  50.1484032  56.7032204
  65.8926620  23.2595234  74.2842941  66.0663986  24.0741520  73.8126678
  65.4341354  22.7085972  73.6498947  74.1764603  59.7650909  56.3487549
  75.0422363  59.3714523  56.2405701  74.2933655  60.6774445  56.0838432
  47.9147949  18.5063305  58.4016495  47.1438217  18.5708141  57.8380203
  47.5587578  18.3745728  59.2803459  76.5709686  52.7727661  84.8035660
  77.4524994  52.9565430  84.4789581  76.0026016  53.3490753  84.2926254
  31.7702198  53.1460571  40.9599037  31.5938339  53.5154839  40.0946655
  30.9092693  53.0829620  41.3734436  53.6308594  53.4594955  86.4361649
  54.2259483  53.6261635  87.1671371  52.7569618  53.5009384  86.8245163
  67.4970932  12.1856070  82.1548538  66.6711502  12.5327654  82.4917984
  67.2905731  11.8965645  81.2660141  44.0776634  53.1166916  80.2092972
  44.6545639  52.4076042  80.4932175  43.2716370  52.6763306  79.9397888
  10.1666794  67.8142929  68.2926025   9.7421408  68.6009445  68.6349182
   9.5414219  67.1103516  68.4651031   7.6979523   6.9246387  19.4062481
   7.2956896   7.3901911  20.1395130   8.4850407   6.5265865  19.7781048
  64.6860275  34.2257271  63.4862633  64.1605682  33.6160316  62.9681969
  64.0558243  34.8687172  63.8112793  72.4709625  52.6017952  12.8844099
  72.0317993  52.4503326  12.0474968  71.7698669  52.5561714  13.5344992
  85.9817886  17.2154541  14.7522955  86.5405197  16.5524921  14.3466759
  85.6704636  17.7471008  14.0197220  44.0398827  65.6306839  31.3935108
  43.7568970  65.8781509  30.5132198  43.8389969  64.6968918  31.4560165
  78.5784454   4.7391167   2.4978445  79.2582932   5.3578200   2.2309246
  78.9878540   3.8788366   2.4054348  77.9632874  41.3669357  38.1680832
  78.5274963  40.6355400  38.4190025  78.5492249  42.1233902  38.1418495
  64.4795532  47.4503365  24.2682762  65.3041077  47.7063980  24.6815243
  64.6429596  47.5434875  23.3297386  -0.0569726  62.7120361  17.0494347
   0.7901721  62.9757881  17.4086170  -0.3861524  62.0590248  17.6670513
  10.2008581   0.2701218  82.7889862   9.9137592   0.4975727  81.9046326
  11.1340332   0.4829477  82.8000183  39.4327545   3.4807363  48.1791000
  39.0945396   4.2353692  47.6970482  39.2113495   3.6612823  49.0926743
  25.9776134  53.4660454  67.9662704  25.1724224  53.9786110  68.0382080
  26.5459538  53.8152275  68.6527786  57.2427177  52.3423042   3.7190125
  56.4971581  52.0581245   3.1902254  56.9097404  53.0848351   4.2230020
  80.4033813  56.6624565  49.8079491  80.7942047  56.8163109  50.6680756
  79.7528229  57.3580894  49.7125740  10.2301674  28.2848625  18.8548775
   9.5794487  28.2904415  18.1529045  10.0330210  29.0668850  19.3704395
  76.3780289  24.1393433  27.7673969  76.3063354  23.5614853  27.0076790
  76.9852829  24.8253288  27.4900856  43.6536713  18.5132179  77.1436234
  44.2965698  18.9920826  77.6666946  43.9434395  17.6018066  77.1835632
  55.8099213  26.2467594  60.8114281  55.1669235  25.7285328  60.3274574
  55.2994080  26.9533920  61.2067490  54.8522606  71.2443390  55.6134987
  53.9160233  71.0566330  55.5467186  55.2783813  70.4097443  55.4182854
  43.2009544   5.1869521  72.5224991  42.9653206   4.4156404  72.0069580
  44.0310364   5.4812241  72.1475372  81.8523026  35.9769135  75.4407501
  81.4279861  35.1289215  75.5714874  81.2538376  36.4587173  74.8698425
  77.8478088   5.4363179  65.2894669  77.7274857   5.5436468  64.3459396
  77.4608078   6.2240863  65.6714096  42.3263016  53.8461723  28.2061424
  43.1222420  53.6625824  28.7051487  41.7126350  54.1936455  28.8533726
  69.7908783  44.9679451  25.4026623  69.2116394  45.1629181  24.6659775
  69.4035645  45.4360886  26.1423016  64.9446335  15.1074190  20.3937435
  65.9016953  15.1208029  20.4032173  64.6951218  15.1670475  21.3159275
  76.1090622  71.3465652  57.3452072  77.0462112  71.2732773  57.5258141
  75.7197266  70.5941086  57.7906837  66.8294983  55.6052132  61.3186989
  65.9361725  55.2952461  61.4674072  67.1772156  55.0199127  60.6458321
  16.1886444  58.7803192  57.9573174  15.7895241  58.2896843  57.2388382
  16.1868687  59.6891174  57.6567917  65.9996948  10.3347425  17.8295479
  66.8550949  10.6507759  18.1204987  66.1622543   9.4375858  17.5381432
  48.6980515  23.8668766  30.2357159  48.7542534  24.3790264  31.0424232
  47.8812485  24.1529694  29.8267994  73.0969086  46.9832497  15.2399292
  73.2748413  46.1635666  14.7787409  73.3615723  46.8118896  16.1437111
  32.6743164  53.5581665  13.6250305  32.1966667  52.8531418  14.0620909
  33.3016281  53.1077576  13.0594845  49.1391220   8.6577291  20.7620659
  48.2974167   9.0411215  21.0085926  48.9113350   7.9383936  20.1730824
  69.2508163   1.5097997   7.4959507  70.1567230   1.4801385   7.1882410
  69.3193741   1.4487032   8.4487352  49.9451942  20.8482246  69.8680038
  50.7639732  20.3858891  70.0471039  50.1170235  21.3365078  69.0628433
  80.0571289  65.6776810  19.8591480  80.5470428  64.8559570  19.8906326
  80.4773636  66.1804962  19.1614246   4.4360690  61.2836151  44.2957306
   3.5787749  61.0475845  43.9413757   4.6022215  62.1626396  43.9552307
  33.1464653  41.9078674  64.1156006  33.9777794  42.2175026  64.4751358
  32.5033340  42.1025696  64.7972946  18.3304768  21.8312149   5.8805361
  18.5730247  21.0477791   5.3869452  17.7859592  21.5041275   6.5965981
  85.8407135  12.7752771  30.7668858  86.7213211  12.8663282  30.4029179
  85.2809525  13.2661152  30.1652431  47.7208977  63.0488396  54.6704369
  48.2637596  62.9541245  55.4531021  47.0297394  62.3953857  54.7778282
  55.1645241   7.9564381  25.8925610  56.0542564   7.6202245  25.7850037
  55.2758942   8.7825174  26.3631153  81.7572632   5.5195351   4.8699832
  82.3074112   6.2860746   5.0311823  80.8666382   5.8680153   4.8302298
  29.7215729  35.9381409  82.2341080  29.2767277  35.5379639  82.9812393
  29.7812977  36.8663864  82.4599991   7.7508717   7.0584707  68.6494141
   8.5937119   6.8277068  68.2587738   7.1068382   6.5740356  68.1329117
  43.1385727  32.3473015   2.9715831  43.5646439  31.5619621   3.3149989
  43.3225479  32.3283615   2.0324204  62.4379349  35.5839386  57.9845428
  63.0419312  35.0017815  58.4455338  62.9682808  36.3474846  57.7565880
  19.1910782  28.1772957   1.1036472  19.0370865  27.2347717   1.1682149
  20.0768452  28.2992287   1.4453807  16.6884480  43.0941315  30.0501499
  17.3201046  43.2267151  30.7570190  16.5768452  42.1445961  30.0036488
  29.7641106  64.4974594  20.7822990  29.2865238  63.8859825  20.2217255
  29.5556335  64.2179794  21.6737385  26.4971943  47.7348099  50.9322662
  26.7208176  46.8792114  51.2985649  27.0504284  47.8147011  50.1552353
  42.4982491  38.3301048   2.4163454  42.4027786  38.7504845   1.5617111
  43.3221550  38.6738701   2.7616527  48.4333153  69.6704025  44.4338379
  49.3658104  69.4793091  44.3330116  48.0034485  69.1161957  43.7824593
  84.9469833  70.8466415  32.4377251  84.8154526  69.9127884  32.6015968
  85.8247910  70.9022446  32.0601234  45.4090652  57.4810829  52.2255630
  45.9348259  58.0173035  52.8190918  45.1061211  58.0930481  51.5547752
  28.0331039  67.3511353  65.5527344  28.5290680  66.5419846  65.4281311
  27.4450607  67.1614609  66.2837982  75.4007339  43.8786659   8.2086897
  74.9604111  43.3500748   7.5431523  76.2986450  43.9669304   7.8890042
  21.2791290  10.3779697  68.7181320  20.8327885  11.0638685  68.2215881
  21.9672585  10.0660448  68.1304092  13.1504393  20.1204071  14.8015471
  13.0875568  19.3325768  14.2615461  13.7061110  20.7135868  14.2959795
  55.1929970  66.2321320  32.5887871  55.1699486  66.0260086  33.5232468
  54.4652443  66.8403549  32.4596596  71.6639099  17.5462856  44.0262184
  72.3230362  16.9089603  44.3011780  71.4575272  17.3031960  43.1236954
   0.8453643  23.5405121  62.4077530   1.3012948  24.3771038  62.3157005
   1.2101202  22.9913254  61.7137947  73.7788162  50.8122749  84.5556107
  73.9815521  51.7472839  84.5257950  72.8686447  50.7737999  84.8494415
  47.6001472  62.5798416  44.5912132  46.7069016  62.6836510  44.9191856
  47.6579590  63.1904755  43.8563576  21.1254902  61.2288857  59.3866310
  21.6011887  61.3394585  58.5633965  20.2575989  61.5931511  59.2125435
  37.2447472  31.8145180  47.2175255  37.5004387  32.7328453  47.1307564
  36.6797562  31.7951622  47.9899483  32.5708847  53.9812775  60.8850899
  32.5626945  53.5361595  61.7324600  33.2568550  53.5363007  60.3874207
  16.5299454  36.0701637  55.0236015  15.5983810  35.9692879  54.8280411
  16.9469414  35.3226776  54.5951004  39.8224335  13.3734016  60.5646439
  39.1469383  12.9529438  60.0325203  39.8949547  14.2574549  60.2048912
  57.7056999  30.5040359  38.4816513  58.2312813  30.0563850  37.8186264
  57.0598183  31.0012074  37.9797630  10.6986284  14.5948973  25.9798870
  10.0686255  15.2709904  26.2293396  11.0777912  14.9116106  25.1600323
  69.4192123  37.2608566  38.8582153  70.1583481  36.6970329  39.0862770
  69.3745728  37.2225075  37.9028244  34.8248711  42.2715034  56.1075211
  34.2445107  41.5503845  55.8637924  35.6952324  41.9811363  55.8347740
  35.9999428  29.9431171  13.0931997  36.5444374  29.6514587  12.3619747
  35.2575455  30.3826466  12.6786022  79.4979706  36.0876350   5.6025405
  78.6993637  36.3467979   5.1428695  80.1049652  35.8377724   4.9058628
  30.4932423  31.6800289  16.3989277  31.3356342  31.2502899  16.5470238
  29.8592854  31.1289902  16.8579350  84.9211044  20.2412567  61.3474808
  85.2997513  20.4833145  62.1926231  84.8425446  19.2880020  61.3844299
  50.9530182  41.9407883  43.3472748  50.3874283  42.6652298  43.6147156
  51.8331146  42.3168831  43.3325157  43.1429329  23.5737133  12.1868353
  43.4255829  23.1605473  11.3709707  43.4664383  22.9918385  12.8745842
  51.3050117   3.1026266  40.7721977  50.3905373   2.9824302  41.0281715
  51.5399094   2.2856851  40.3321304  69.8890457  34.0259132  35.3579941
  70.6603317  33.8955460  34.8063126  69.4384842  34.7743607  34.9667816
  19.4703045  59.8046646  54.1879234  19.6911640  59.8175507  55.1192093
  20.3158607  59.8404045  53.7407227   1.8198090  71.7158737  64.7492371
   2.4685388  72.1657410  65.2905350   1.6391873  70.9016113  65.2188950
  17.7383995  45.3141022  76.5450363  17.3321381  44.7206459  75.9133759
  18.6545486  45.3636627  76.2721863   8.9279747  49.1706886  33.5235939
   8.9561577  49.3140793  32.5776138   9.5617037  49.7936859  33.8792572
  57.0700340  48.6460228  84.3609772  56.1715202  48.5757370  84.0385361
  57.5893517  48.8440895  83.5816727   1.9673485  29.0665855  19.0077171
   2.3021729  29.9587555  19.0980415   1.6879964  29.0069466  18.0941334
  64.2198639   1.6263180  46.4268723  64.0537109   0.7613968  46.0519905
  63.6287308   1.6794440  47.1778526  86.2075958  11.2787895   4.3428869
  87.1215439  11.1105299   4.1135087  86.2485352  11.6808004   5.2106104
  54.6356125  55.7277641  49.5174255  55.4403229  55.6943283  50.0346832
  53.9348412  55.7770958  50.1675949   3.5595400  30.5659809  41.8003349
   4.4570484  30.3927746  41.5162430   3.4734023  30.0892181  42.6258698
  49.2180786  50.7041550   8.6226397  48.9215660  50.6768379   9.5323467
  48.8678932  51.5269661   8.2811918  30.2271557   4.0284371  83.1690750
  29.5441875   4.5605135  82.7608109  29.7540455   3.3029103  83.5765228
  15.8590717  53.3479881  64.0947952  15.6249495  54.2170181  63.7689056
  16.7421589  53.4546738  64.4483643  59.8404579   2.7195294  71.3382645
  59.4746475   3.3452017  70.7130051  59.6271553   1.8616105  70.9712372
  43.4902611  14.5570498  85.6533127  44.0014687  14.1509142  86.3532791
  43.9635620  15.3632917  85.4479065   3.8189461  31.9861660  15.4001236
   3.5598311  32.0199127  14.4792795   2.9922283  31.9347343  15.8798361
  45.6896133  27.0035534  73.2194366  46.4244804  27.3506947  73.7250977
  45.4182281  26.2203388  73.6981354  41.0539970  64.1806641   5.4399543
  40.8076782  65.1022034   5.3604002  41.8697433  64.1071625   4.9445891
  30.4382591   3.5319707  41.3831978  31.2622147   3.4144275  41.8559647
  30.0009384   2.6830883  41.4493866  72.7229538  26.1339130  47.3039017
  73.2990341  25.6174240  46.7403374  72.0420380  25.5194530  47.5778084
   8.8321857  68.4769211  22.6432076   8.1293888  68.4839630  23.2930222
   9.6371012  68.5005493  23.1606884  75.0505447  68.0018921  28.9354973
  75.4410095  67.7325211  28.1041069  74.8323212  68.9253387  28.8095722
  21.6519680  62.3069763  23.3392143  22.0812931  62.7633171  24.0628605
  21.0327091  62.9461250  22.9867382  54.8228989  39.0228500  87.8839264
  54.3590012  39.6661987  87.3480835  54.1332054  38.5837440  88.3816605
   0.5735602  45.5895538  14.2060223   1.3839298  45.4267311  14.6887465
   0.1245234  46.2659531  14.7130537  79.5225830  57.3017807   2.1848011
  78.7570038  57.8737335   2.1302052  79.6757507  57.1955795   3.1236804
  15.1609173  41.2647743  19.1866360  15.7649784  41.9168625  19.5417747
  15.1859646  40.5459938  19.8182697  12.7129288  69.2599258   8.1531353
  13.4751339  69.2235870   7.5752463  13.0016327  68.8292007   8.9577208
  76.4446945  65.6086044  68.2949448  75.5506363  65.6232529  68.6365204
  76.3978348  66.1079788  67.4796753  63.9145470  31.9653206  68.0168610
  63.3486099  31.4175949  68.5608673  64.1382599  32.7087898  68.5767136
  48.4233170  19.6811352  34.1451950  49.2688141  19.7435913  34.5895653
  48.5081329  20.2588272  33.3867035   3.6070592  35.3135567  22.5025120
   4.2746205  35.1844292  21.8287773   3.6150033  34.4998932  23.0066147
  30.9699135  66.3105927  72.4284668  31.3098202  66.8475037  73.1443024
  30.3287849  65.7344818  72.8447342  71.1434784  64.0757294  41.7473679
  71.9052353  64.4052200  42.2242279  71.4296112  64.0393372  40.8346596
   8.0135822  36.1433716  23.4845390   7.6822658  35.9614105  22.6051350
   8.3871651  35.3118629  23.7765388  74.4337082  35.2418938  12.3474398
  75.2128830  34.8052750  12.0032301  73.9831772  34.5649147  12.8523674
   6.8450656   6.6357999  60.4699440   6.1387935   6.2659683  59.9401932
   6.6749573   6.3129907  61.3548660  28.1876564  40.5003967  74.4428177
  27.2420940  40.6401978  74.4937897  28.4101009  40.6968346  73.5327759
  77.2566757  32.9409256  27.4960670  76.9509735  32.0535812  27.6842117
  76.7924881  33.4926910  28.1256046  54.2165871  33.8974113  24.0229588
  53.9671135  33.2433014  24.6757488  54.1032982  33.4527588  23.1829109
  85.5388947  61.4166145  57.9803963  86.1332169  61.9422989  58.5158119
  85.3846893  61.9494019  57.2002754  61.9938850  70.3457489  22.8205338
  61.0371933  70.3226929  22.8416767  62.2627716  69.8281479  23.5794945
  43.7085381  63.1180649  10.9172916  43.1481361  62.4990082  10.4493732
  44.5223579  62.6373825  11.0685282  86.0407486   5.3907967   9.4853592
  85.8008881   6.3034034   9.6461315  85.2078629   4.9191489   9.4940100
  40.2539787  25.5083675  41.8016586  40.2561417  24.6201115  42.1583481
  41.1064224  25.8674335  42.0479202  37.2234955   7.8496375  78.2148895
  36.5754814   7.8917589  77.5116577  37.5192528   6.9392762  78.2138367
  36.5892143  31.1729698  44.7999420  36.8951111  31.2750912  45.7011795
  35.6482239  31.3422909  44.8457642  65.6111069   0.8254395  68.5966873
  65.7961960   0.2429091  69.3333282  65.2733154   1.6241286  69.0019379
  60.4990501  40.8380318  65.7832794  60.3679123  40.0691452  65.2284393
  60.5425148  41.5714951  65.1697845  56.2133331  48.5853539  28.9644260
  56.2994118  48.7671127  29.9002590  55.4519386  48.0086784  28.9014816
  78.1927338  13.4125986  68.2511063  78.7365494  14.1120443  67.8887787
  78.0123825  12.8391724  67.5061951  48.9846344   2.0387757  41.1218681
  48.7678146   1.7004697  40.2530937  49.1681976   1.2578372  41.6440468
  51.2646484  38.4689980  42.1492424  51.9287758  37.8275719  42.4017181
  51.7309608  39.0881844  41.5876427  54.5758972  28.2407990  62.1842575
  55.3926582  28.1937218  62.6811638  54.2999306  29.1539650  62.2630005
  24.1397572  59.1305580  88.5125809  23.4962482  59.6075020  89.0366516
  24.2933807  59.6920547  87.7527466  14.4700727  22.8250313  11.9661293
  15.0360603  23.2370949  11.3133698  13.6518154  23.3195648  11.9200420
  65.6725464  37.7193718  74.1031342  66.3311768  38.1484299  74.6493454
  65.2512360  37.0885735  74.6869354  72.6107254  58.7275620  13.1653204
  73.2808685  58.0801659  12.9461908  72.3770981  58.5326653  14.0728798
  48.5940170  32.2790794   0.8713158  48.3237190  31.8018589   0.0868229
  48.5909042  33.1985664   0.6052894  64.9278641  64.1399994  34.3676796
  64.7822952  65.0496750  34.6275711  64.1958313  63.9372368  33.7852364
  50.5160103  70.3460922  76.6748352  50.1358032  69.6146240  77.1612854
  50.4074593  70.1042633  75.7550659  51.5271263  29.0860748  10.1813116
  51.7810555  28.2560387   9.7778358  52.3376770  29.5941486  10.2144279
  30.5296478  35.9937782   2.5749195  29.8629608  35.3211555   2.4358606
  30.2653427  36.7147408   2.0034420  38.6526222  43.4810104  79.4309845
  39.3222313  44.1308708  79.6443863  38.0569839  43.4959641  80.1801300
  49.2128410  56.8092690  46.2264824  48.5282669  56.3893623  45.7056503
  49.8698654  56.1250801  46.3546829  63.6844978  57.4093437  10.6148767
  64.4861526  57.9046898  10.4469137  62.9777985  58.0302391  10.4379759
  79.1497345  24.1167564  75.6599960  79.3172455  24.9434013  75.2074127
  78.4164886  24.3081570  76.2447586  80.2213974  66.8474655  49.0128326
  79.4503021  66.4235153  48.6361198  80.9416275  66.5894012  48.4375916
  30.5131721  16.3180332  81.3995972  29.8696785  16.6667709  82.0164719
  30.9177322  15.5853977  81.8641510  23.6986389  12.3913364  14.5151730
  23.0431709  13.0624866  14.7053041  23.2035751  11.5723915  14.4934778
  77.0396271  40.6275864  68.9954834  77.9676666  40.8396873  68.8955612
  76.6192398  41.4692192  69.1719894  19.2054520  65.8062057  31.5646820
  19.6258698  64.9758606  31.7883072  19.8686008  66.2838669  31.0663834
  80.5121307  59.1897812  19.8582954  80.6835938  59.7523003  20.6135483
  80.3584061  58.3233414  20.2349701  75.6283569  51.0707283  11.1759930
  76.4025803  51.6145973  11.0310163  75.1721954  51.0742455  10.3344860
  62.9208145  70.2904282  37.2045975  62.7305450  70.9679565  37.8534317
  62.6389389  70.6699524  36.3722878  26.4026051  49.9633980  43.4761887
  25.6159687  49.8980560  44.0176392  26.9112148  50.6684341  43.8767776
  14.2653666   4.8430486  74.4077072  13.6776619   5.5355134  74.1055069
  14.9544897   4.8073287  73.7443314  61.7602196  67.0673065  87.5707703
  62.2914772  66.5145264  88.1438599  62.2734680  67.8686981  87.4679260
  41.2123871  31.9101639  82.0565186  42.0668259  32.2635193  82.3041077
  41.1731720  32.0217285  81.1066513  14.4660435  43.9782906  63.9440804
  14.6540623  43.3523064  63.2447777  13.7872286  43.5541992  64.4690399
  84.5257874  66.9788055  58.7285728  84.9050903  66.2555695  59.2278671
  85.1314468  67.7074127  58.8647003  20.9836540  63.3798447  32.1951408
  20.5168686  62.5452118  32.1535492  21.2502346  63.4598007  33.1109848
  73.3624268  64.9405060  66.3135910  73.2645569  65.8115463  66.6982117
  72.7786942  64.3840485  66.8291855  23.5140667  58.4350243  19.8338432
  23.8122597  57.9950142  19.0377884  22.6051636  58.6724701  19.6501312
  70.2978516  14.3726177  16.2161636  70.6502457  13.4873047  16.3071156
  71.0398407  14.8957539  15.9128151  34.0726814   8.7610359   7.1072702
  33.2414398   8.5689631   7.5412970  34.1644859   9.7113819   7.1754384
  19.5759754  51.1844406  53.8374062  19.1163864  51.9744110  54.1219330
  19.1396484  50.4720650  54.3047142  47.6599617   8.1190166  77.4773407
  47.1843262   7.2903214  77.5345001  47.0099831   8.7469778  77.1620178
  72.2484970  11.6445684  52.5903397  72.4072189  11.0469761  53.3210411
  71.6469193  11.1684914  52.0179062  46.3127518  26.7612686  63.1354828
  47.0576668  26.6873226  62.5389366  46.1562996  25.8658428  63.4354248
  75.9198303  47.2898483  27.4123650  75.5853653  47.4409714  28.2964058
  76.7995911  46.9372063  27.5461578  63.0087395   0.9470753  66.6190491
  63.5715523   0.2481269  66.2859650  63.6123199   1.5634793  67.0337448
  55.0853920  45.6416626  46.5995598  55.4594574  45.2536354  47.3905983
  55.7746925  46.2155609  46.2652931  71.1808929  61.3546944  50.4736595
  70.8044662  60.8680191  49.7403908  72.1206665  61.1813202  50.4189491
  65.3614273   7.4606552  59.5042992  65.1314697   7.6387258  60.4162445
  64.9931946   8.1971550  59.0162354  68.1229248  24.1130409  17.5048676
  67.2678757  23.7170143  17.3367004  68.5636673  24.1011238  16.6552563
  12.8413887  53.3491440  56.4986839  13.5523119  53.4823227  57.1256447
  12.6290178  52.4186440  56.5714836  61.5424194  60.0755692   2.7840891
  62.4890862  60.0719376   2.9256389  61.2714691  59.1732559   2.9533467
  61.9107285  70.2528381  88.7670288  61.4614105  71.0944824  88.6896439
  61.2803688  69.6846161  89.2097473  52.0326424  57.4863853   0.3530386
  51.3563423  56.8860207   0.0393256  51.9160805  58.2757988  -0.1756089
   2.0991433  54.6738472  45.4469681   1.6660897  54.7247086  44.5948486
   2.1606503  53.7360878  45.6287842  82.1280670  15.7956982  45.2846298
  81.2300186  15.6662388  44.9796982  82.5078354  16.4105644  44.6569786
   6.0517406  49.8707695  67.7722473   5.7115006  50.3837051  67.0391998
   5.9451818  48.9601326  67.4972610  66.7522812  34.4984589  31.2956142
  66.1190109  35.1361542  31.6250668  66.9710693  34.8099518  30.4173565
  14.9083385  62.2961502   1.5326967  14.1416655  62.6844826   1.9541748
  14.7377005  62.3864441   0.5951672  70.1800308  20.9786263  85.6741562
  69.5371933  21.6830997  85.7560730  70.9927444  21.4228859  85.4325638
  44.8480568  19.9939194  31.9972878  44.8834991  19.0417671  32.0888519
  45.5953445  20.2088337  31.4390697  36.3528290  65.7979813  78.4787979
  35.7178040  65.3406143  77.9276352  36.3498497  65.3106079  79.3026199
  84.6681976  61.3979988  42.2758217  85.1839371  61.6007309  43.0563011
  84.1300888  62.1770515  42.1352997  71.3237076  67.2822113   9.1090708
  71.7751541  66.8500748   8.3840303  71.7583084  66.9493408   9.8942776
  79.1093750  48.5712738  12.0002556  78.4253922  48.3384438  12.6280956
  79.5135727  47.7359161  11.7656565  69.8362961  43.6774445  57.3140030
  69.7744675  44.6281395  57.4066887  70.0496826  43.3644676  58.1930580
  34.0708199  61.1559029  74.8710403  34.6039124  61.9338989  74.7074356
  33.5238876  61.3934517  75.6198196  33.0212440  62.6881485  66.2992630
  32.5322037  62.4220695  67.0778961  33.6321182  61.9680977  66.1424332
   5.7507577  45.5653534   9.7727880   4.9839082  46.1161690   9.9301958
   5.8656721  45.5806465   8.8226337  34.0249100  61.3580742  14.5934610
  34.0996552  61.5441017  15.5294304  33.4777641  60.5739822  14.5480537
  82.7514038  63.6716385  14.9969187  83.0447845  64.1182632  14.2027597
  81.9291382  64.1050262  15.2255754   4.9933090  66.9891357  22.1386604
   5.7123470  66.3594055  22.1902237   4.5721354  66.9425735  22.9969597
  32.8069153  27.0088463  86.2929382  32.7097778  26.9905796  85.3408508
  33.4039688  27.7383957  86.4588242  72.3365326  27.3901711  16.3907852
  72.1319504  26.7816124  15.6808290  72.3236694  26.8496990  17.1806946
  46.1497841  37.9008636  63.2491875  46.0999718  38.3432732  62.4018250
  45.2369995  37.7488785  63.4940491  85.3673248  36.5886192  54.1505661
  84.6828384  36.0259476  54.5126610  86.1387405  36.0242958  54.0987320
  60.0753517  44.2161865  23.5779095  59.9687080  43.6100616  24.3110313
  59.1866112  44.5115967  23.3801479  13.5783062  15.6891289  32.0731125
  13.1601934  16.4125919  32.5400352  13.0743990  14.9163370  32.3282623
  86.7748795  67.2189102   9.7025461  86.1571426  67.1988220  10.4334574
  86.5093460  67.9793320   9.1853647  64.7126617  39.9100571  18.0541801
  64.7687988  40.4976807  18.8076935  64.1020813  40.3431625  17.4576569
  32.2016182  60.5792427  51.1347694  31.9249077  60.2597961  51.9936180
  32.9150505  59.9941254  50.8800545  26.8299809  19.2692661  84.8980789
  27.3041058  20.0996857  84.8551788  25.9415283  19.5138264  85.1570587
  16.4163666  59.8517838  86.3997269  15.9315929  60.6702728  86.5060272
  17.1730900  59.9447060  86.9784927  30.6190948  60.1482620  16.3990231
  30.9792118  60.1520271  15.5121546  29.6749935  60.2453041  16.2745838
  21.1438007  29.8919735  26.1872463  21.4600105  30.6683159  25.7251472
  21.5836029  29.9232349  27.0368519  52.4557037  35.0419159  80.0899506
  53.3308487  35.0259972  80.4773788  51.8857040  35.3417549  80.7980728
  53.0975342  36.9030533  84.4908371  54.0221596  37.0611191  84.3002701
  52.6671371  36.9404984  83.6366806  45.4118156  51.2473640   6.7422185
  44.6670990  51.3502655   6.1497331  45.3101883  51.9541626   7.3796639
  43.8838425   7.7118855  65.7247467  43.5094032   8.4293652  66.2358704
  43.1607399   7.0947957  65.6127014  54.3215637  50.6662827  86.0055084
  53.9215813  50.2741585  86.7817078  54.3077545  51.6076050  86.1785736
  13.8546944  67.3967514  32.3436317  14.7069359  67.0568695  32.0708771
  13.9352264  67.5135422  33.2902603   1.9401698  48.5940666   6.5402470
   2.0653765  49.1650848   7.2982011   1.2876880  49.0459175   6.0051484
  41.6385880  50.8579521   8.2131281  40.7191124  51.1202812   8.1686144
  41.9971657  51.0957680   7.3580861  73.2378693  53.7589645  62.1777916
  74.0057678  54.2334633  61.8593483  73.4104004  53.6217079  63.1092567
  70.8330231  40.1221771   0.6923794  71.4594116  39.6604195   1.2497348
  69.9798660  39.7739105   0.9513434  48.9458008  32.8415565  38.8173332
  49.5979767  33.1124229  38.1711655  48.3696632  32.2443047  38.3402710
  66.7391510  64.0567551  63.7726212  66.2811508  63.2162704  63.7660904
  67.0490646  64.1676331  62.8737946  53.6859703  59.1615105  65.7703629
  54.3888016  58.5990715  66.0958176  53.8033905  59.9874382  66.2397079
  25.2283669  11.5462465   5.5768995  24.2852287  11.7094297   5.5865135
  25.3147964  10.6261568   5.8262901  85.7090759  65.1962509  41.0426826
  85.3013535  65.4738235  40.2223434  84.9811935  64.8763733  41.5756874
  76.2214584  61.2643089   4.3763905  75.5797806  61.5816650   3.7409573
  75.7274551  60.6664734   4.9374523  74.9852219   0.5215483  22.8878994
  75.5944061   0.8959941  22.2515717  74.5700836  -0.2050478  22.4231930
  14.2203417  24.2596626   9.4385099  13.9804983  25.1633492   9.2334356
  15.0681705  24.3305244   9.8771410   4.5604749  37.8497581   3.0355604
   4.6420159  38.6819496   3.5014327   5.2293105  37.2888527   3.4283385
  30.1632423  47.0561867  32.6091728  30.6814880  46.4492035  32.0807533
  29.5550556  46.4954147  33.0907059  79.1448669  21.3839417  28.1254330
  78.9716492  21.2340126  29.0548153  80.0684891  21.1584473  28.0145168
  25.8813972  57.6705093  20.9861565  26.3922920  57.2158775  20.3164330
  25.1700878  58.0893402  20.5015430  49.5447655  35.6161919  41.4443169
  50.4881897  35.6751480  41.5949974  49.1553688  35.7502441  42.3083954
  26.7472134  67.0148239  88.0344772  27.1556969  66.7226257  88.8493347
  26.3366623  67.8500061  88.2584229  21.1511250  54.4170189  70.4324036
  21.6962795  54.4047852  71.2191010  20.4460526  55.0305138  70.6391144
   8.0550327  51.8678932  25.4845066   8.4171820  50.9982033  25.3150387
   7.4273229  52.0082550  24.7756252   4.0494199  40.0413475  22.2471714
   3.7247837  39.7455902  23.0976830   3.8012035  39.3439293  21.6403542
  76.2365723  30.2999477  70.8178406  76.4995575  30.6077080  69.9504547
  75.8766785  31.0755024  71.2482071  14.7841730  10.8635044  88.0789413
  14.7784290  11.1291971  87.1593781  13.9297056  10.4542189  88.2153397
  38.0998230  68.8867035   9.3391199  38.0814171  69.8415833   9.4030714
  38.7620239  68.6167603   9.9754000  81.1451874  60.3519058  85.7126083
  81.1787109  60.0959930  84.7908554  80.2106857  60.3965836  85.9149399
  15.4329891  51.2757607  25.8764000  15.3744144  50.5206757  25.2910385
  16.3616314  51.5078278  25.8757744  35.4692078  10.4303865   0.2808527
  34.6340752  10.2064400  -0.1297958  35.4529724   9.9730453   1.1215711
  49.7058601  44.6224213  85.7431793  49.2709160  43.9135666  86.2170715
  49.1555557  45.3894272  85.9016037  71.0914078  24.1378193  36.8888130
  71.0643921  23.2072601  36.6661873  71.5543823  24.5458031  36.1570778
  50.1361847  39.4892960  31.0013428  50.4322357  38.7073898  30.5352859
  50.2223740  40.1963043  30.3618584  43.7878876  31.6654987  72.5380630
  43.0999718  31.9754467  71.9490509  43.7389908  30.7111797  72.4822235
  56.6992264  40.0513573  65.5845795  56.3513374  40.5291748  66.3375015
  56.6663170  39.1318283  65.8484268  59.1001892  34.3011627  32.4580421
  59.0810051  33.6841698  31.7264824  59.0268784  33.7506485  33.2376518
  40.2014961  10.2197437   8.6437607  40.6952896  10.4680471   9.4252634
  39.2849464  10.3447542   8.8898058  86.5115128  52.5342789  23.4657707
  87.0785217  53.3052406  23.4844131  85.7925339  52.7797661  22.8835011
  14.0446424  42.1745377  52.4806290  14.7948389  41.5967216  52.6205177
  14.4294767  43.0437241  52.3681602  32.3019981   3.9014621  75.5305176
  32.6963921   3.0400693  75.3938141  31.4712124   3.8624246  75.0566940
  69.5570145  48.2365150  88.5074081  68.7194214  48.6953964  88.4433823
  69.3792419  47.4927330  89.0830917  47.9999771  52.1976433  88.9141922
  48.3076439  51.8269958  89.7413559  47.4443970  51.5150681  88.5378189
  13.7666264   5.7690129  81.7885361  13.2070341   5.4730000  81.0705719
  13.1755171   6.2438006  82.3728256   4.1925917   9.5074587  73.6194305
   3.7534101   9.1181393  74.3755951   4.9836421   9.9068460  73.9813156
  70.2731171  66.7606506  78.5110703  69.9943466  66.7018356  77.5972519
  70.0686035  65.9012680  78.8796539  44.8761444  37.6896019  67.2102737
  44.9346352  36.7948685  66.8752136  45.3331490  38.2201118  66.5576401
   4.2078857  41.9848404  86.3734055   4.7915421  41.6842537  85.6768265
   3.5040407  41.3364067  86.3925934  31.7365894  30.0789413  73.1856537
  31.7310619  29.4580040  72.4572067  31.3786392  29.5855484  73.9236679
  31.5272655  63.8671532  59.4647636  32.2081985  64.4641647  59.7748299
  31.9514160  63.3581657  58.7739220  81.1392517  50.4187660  24.3452282
  81.2438583  49.4705391  24.4236603  80.9182892  50.5600243  23.4246559
  60.1053619   4.4986291  39.0185204  59.3868675   5.1308527  39.0356827
  60.8198967   4.9354534  39.4820442  62.4276390  58.7349701  54.9402237
  62.9843178  58.9064064  55.6997986  62.8432274  57.9927444  54.5013390
   2.2813506  11.1640625  72.9021072   2.9548197  10.4907150  72.9984131
   2.6497748  11.9347944  73.3339233  85.4644241  27.3288975  65.6696777
  85.6013718  27.8945866  66.4295959  84.8776550  27.8284245  65.1018753
  53.5339699   3.2796922  37.8086433  54.2825356   3.8160825  38.0697289
  53.5208778   2.5622122  38.4421120  71.2789383  38.3822136  25.4542408
  70.9397125  37.9606209  26.2438107  71.6265259  37.6617699  24.9285316
  34.9139595  45.2003593  78.9239197  35.6497955  45.8124161  78.9367523
  34.5063705  45.2977600  79.7845078  58.0942955  52.5144882  12.0165377
  58.1478119  53.4638710  12.1262417  58.6355095  52.3312340  11.2485924
  68.9844894  18.9053364  39.4432411  68.4991226  18.7398911  38.6349831
  69.7609711  18.3498592  39.3743095  56.8197060  42.3293839  14.0473061
  57.7237854  42.1166458  14.2788534  56.5835075  43.0452805  14.6371641
  30.9585514  24.1713047  84.9642792  31.9106846  24.0736198  84.9757690
  30.7269154  24.3672256  85.8721313  23.8612404  60.2242775  34.6749802
  22.9870892  60.4638443  34.3672485  23.8851280  59.2696571  34.6089630
  80.9874496   1.7691517   8.0688744  80.6713409   1.0528148   7.5182648
  80.8450241   1.4634724   8.9647017  13.2480755  17.5363007  85.0104980
  13.2247877  17.3959522  84.0639267  12.6103878  16.9142094  85.3606262
   9.6049004  52.2780914  46.7033997   8.9734564  51.5604172  46.6538239
  10.2933559  52.0345497  46.0845718  76.2021866  63.7680473  42.8491631
  76.7656403  63.5608406  42.1036377  76.5569458  64.5860138  43.1974602
  23.3383598  17.3865414   3.5410252  23.0025005  16.9844189   4.3421044
  23.8685398  16.7017384   3.1333649  38.8330040  59.4031105  84.2024841
  39.1415443  59.9669342  83.4931564  39.3689651  59.6509666  84.9558411
  66.5175323  29.1562405  87.5397110  67.2015839  29.3176422  86.8898926
  66.0551682  29.9911385  87.6131668  21.5926533  14.0997467  15.1646986
  20.7725792  13.6494007  15.3669300  21.5034695  14.3594561  14.2477312
  56.3045616   3.8348858  82.9248123  56.3680611   2.9575019  82.5474625
  56.2622757   4.4188218  82.1675415  50.8885727  71.3159409  41.8578033
  51.6968079  71.7744064  42.0875702  50.6855087  70.7871628  42.6294174
  57.6600189  22.9132061   9.7738819  56.8617859  23.4326668   9.8698940
  58.0013199  23.1554413   8.9130297  68.1873779   9.3735075  34.0990181
  68.0973511  10.2209759  34.5348206  68.2619019   9.5889654  33.1693649
  82.1079330  22.8726196  23.7565250  81.3726730  23.4326534  24.0054932
  82.5628586  22.6945724  24.5796738  22.9385986  56.9846992  60.4416008
  22.2390900  57.5282555  60.8041763  22.5234756  56.1378708  60.2779312
  44.0541382  22.4529018  33.0026779  44.4814148  21.6321068  32.7578087
  44.4668732  23.1131611  32.4459572  72.5519180  14.1070051  88.8970947
  72.6437759  14.7102337  88.1595917  73.3178940  14.2796230  89.4445572
  74.9171066  21.2534256   5.1005092  74.5496597  20.5388412   5.6206861
  74.1651459  21.8063087   4.8881135  51.4306526  26.3028793  28.2982140
  50.8648148  26.6246910  27.5964355  51.3541374  25.3499794  28.2496281
  70.5224380  65.6789932  53.2198601  70.0747604  65.0031281  52.7109261
  69.9766617  65.7939377  53.9977722  48.8452721  26.7168427  40.2519989
  48.7109070  26.3983936  39.3593826  48.3701630  27.5471859  40.2841301
  82.0842819  39.1438370   4.1293449  82.3951340  38.5739670   3.4258919
  81.4336166  39.7076225   3.7109983  17.3122406  63.7105103  39.3015938
  17.4927597  64.2003326  38.4992714  16.3574791  63.7059250  39.3697205
  11.9395418  41.6902809  21.0490837  12.5576591  41.3210907  21.6798477
  11.3786907  42.2640572  21.5710602  78.5593338  28.9353733  15.9457293
  79.0708389  28.3150368  15.4263325  77.9786453  29.3566837  15.3120680
  65.8174973   7.6316605  10.2443304  65.8328552   7.9512024  11.1464882
  64.9225388   7.7960334   9.9472256  72.0447159  47.7002716  58.7190018
  72.8558731  48.1991615  58.6222305  71.7205276  47.5943489  57.8246193
  73.2435760  31.3717098  18.2272053  73.2013474  30.8725300  19.0428448
  72.8068314  30.8148441  17.5827026  58.5238266  59.4412918  27.4920292
  58.1989479  59.6010361  28.3781261  59.3228607  58.9296417  27.6184978
  17.7991219   8.5759830  11.4024210  16.8442497   8.6134090  11.4576445
  18.0797005   8.3147259  12.2794914  71.3864212  37.1097717  78.6712341
  70.7187119  37.2399597  77.9978485  71.2525406  37.8326721  79.2841949
  22.9948502  44.1205254  63.9898529  22.3749905  43.6611519  63.4233017
  23.5766964  43.4335136  64.3149719  34.7215576   3.2366259  30.4290943
  33.8181610   3.4818263  30.2291374  34.7877998   3.3213203  31.3802376
  30.8691654  50.9093513  76.4088821  30.8650246  50.3749084  75.6147919
  30.7365704  51.8042068  76.0960159  33.3290939  37.4105988  34.7218094
  33.9291534  37.6570663  34.0179520  33.4111786  38.1153717  35.3642998
  73.1712570  42.1351471  27.2078686  72.7785263  41.6861954  26.4592476
  74.0006180  42.4770660  26.8739719  23.1910915  45.3216019  23.5009174
  23.0526791  45.4612770  22.5641327  23.2930202  46.2022514  23.8618927
  24.4895649   0.2599397  80.7349930  25.4157963   0.4996340  80.7645645
  24.0952263   0.7372040  81.4650192  84.0359344  63.8167801  51.5787773
  84.3602142  64.0780029  50.7168999  83.2956161  63.2396927  51.3913231
  15.4994783  54.3938675  22.6649609  15.6055984  55.0061340  21.9368820
  15.0957737  54.9148407  23.3591099  28.9790955  21.4543743  84.8499374
  28.3782177  21.4836159  84.1054077  29.5715885  22.1927738  84.7086945
   6.3358474  43.4910698   6.0577264   6.8393898  43.3723793   5.2523766
   6.9333425  43.2223320   6.7555876  81.5235672  18.7944851  11.1736908
  82.1375046  19.4786186  10.9067183  82.0689697  18.1405334  11.6108618
  64.7019958  37.0793037  63.6598511  65.0433731  36.7784195  62.8177299
  65.2541428  36.6460266  64.3107224  60.8719368   3.7369800  32.9896545
  59.9704018   3.5166819  32.7552681  61.3990402   3.0443342  32.5913658
   0.1710548  21.4853268  15.8817215   0.1209847  22.0733929  15.1281281
   0.0812899  22.0610275  16.6411572  25.8387985  70.6858139   3.5192277
  26.2114601  69.8041916   3.5092125  25.6018600  70.8560638   2.6075761
  65.4508896  12.2709913  21.5416870  64.6734619  12.3249340  22.0975075
  65.1377411  12.5065060  20.6683598   1.2487524   0.3194585  50.0494537
   1.2555761   0.3430511  49.0925713   1.9304185  -0.3123483  50.2783279
  76.5567093  40.9739075  41.3823204  76.1767578  40.8424911  40.5136414
  76.0468369  40.4017410  41.9558105  87.0471420  29.9210167   5.1009493
  86.7898788  30.4740353   5.8386631  86.2189789  29.6455956   4.7078471
  80.4372711  20.7570000  12.9024734  80.9920959  20.9370365  13.6614122
  81.0349960  20.3919430  12.2500238  45.9998627  33.6568604  32.6195068
  46.2647781  33.6953697  31.7005043  45.7847137  34.5619316  32.8448792
  48.5377464  45.4367447  15.2281475  49.4508400  45.6282158  15.0140657
  48.2597237  46.1735649  15.7722359  66.6707153  64.9927902  54.6308899
  67.0468674  65.3775940  55.4225121  66.8961792  65.6094589  53.9343872
  45.9486237  26.7752342  39.3237228  45.0551910  26.4412670  39.2432556
  46.2504997  26.4497910  40.1717758  71.3160782  22.4464149  15.3383427
  71.3773804  22.5213184  16.2906361  72.2252121  22.4492645  15.0388441
  43.0037079   8.6497192   5.1726241  43.3151512   9.5436382   5.0306931
  42.6376152   8.6612120   6.0569744  37.6303520  50.8154030  12.9466486
  38.1222572  51.5833473  13.2373848  37.4651794  50.3191566  13.7483282
  79.4136276  25.9803448  69.0948105  80.2559433  26.3929958  68.9038773
  79.3522339  25.9920292  70.0499649  57.2947464  10.9346561  79.9834290
  56.8660278  10.4207268  79.2991028  57.1354790  11.8450918  79.7344894
  70.5812988  14.2048359  19.0349121  70.2106628  14.8885794  19.5929070
  70.2285995  14.3888493  18.1642952  10.3698750  57.5541000   0.3714087
   9.7424335  57.7921410  -0.3111497  10.7811079  56.7519188   0.0495080
  38.2788086  44.9205208  30.4411983  38.4509430  45.7258606  30.9290771
  39.0736771  44.7771339  29.9275265  25.8270817  61.6682549  51.9203682
  26.0379219  62.3962517  52.5050011  26.5456142  61.0476303  52.0419121
  60.5807114  11.6847210  17.2646084  61.4672852  11.8304548  16.9344826
  60.1741486  12.5511599  17.2497120  19.1388607  12.7538490  15.7371044
  18.9588661  13.1255407  16.6006317  18.2942543  12.7734680  15.2871170
  64.3181686  57.9364166  58.5307388  64.1105347  57.1940613  59.0982132
  64.3814545  58.6829529  59.1264839  85.8073273  34.0063286  66.1370544
  84.9576035  34.4441109  66.0866089  86.3390198  34.5784149  66.6904526
  17.4432983  13.1797161  62.1162148  17.7097855  13.7597914  62.8294678
  16.4872932  13.1670008  62.1623116  60.8498001  44.6592140  87.3364563
  60.5590248  45.5702438  87.2951279  60.9642944  44.4864998  88.2709579
  35.7384682  36.9938011  17.9363384  36.4063110  37.3922310  18.4944324
  35.3190880  36.3391762  18.4947453  50.8289185  12.5647430  82.1340103
  49.9389572  12.4394236  81.8046188  51.1860237  13.2715282  81.5962753
   9.8001871  59.2132950  59.0920143  10.6064463  59.6442642  58.8083916
   9.3622742  58.9648285  58.2779312  58.8400192   2.6742926  52.4800568
  57.9185791   2.7928545  52.2495804  58.9067917   3.0025959  53.3767128
  27.6256790  43.9801140  80.4392853  27.4443607  43.8200798  81.3654327
  27.0861378  43.3398018  79.9754715  75.7336731  24.0324478   2.6866362
  76.0325089  23.1257477   2.6171792  74.7870026  23.9834633   2.5537877
   8.2945156  30.1410942  74.9492950   7.7232270  30.2536488  74.1895599
   7.8437324  30.6001282  75.6580353  14.5986252  58.8717270  69.0530396
  13.8030338  59.3796043  69.2121887  15.1936207  59.1320381  69.7562103
  45.0876541   8.0927601  85.6660156  45.1077614   8.5632267  84.8326569
  44.5214424   7.3386698  85.5017471  74.0513000  22.2474937  31.7361794
  74.2205353  21.3137436  31.8614864  73.9433365  22.3465157  30.7902565
  80.7020264  12.1488857  10.5942707  80.0559845  11.5025854  10.8791609
  81.2829590  12.2549810  11.3475914  36.3445320   8.3260689  11.4206762
  36.5694237   7.7588129  10.6831970  36.6976891   7.8740258  12.1869459
  31.3573952  19.4003162  14.8064604  30.6906090  19.9668655  14.4183226
  31.6026096  19.8414536  15.6197863  49.0176620  14.2499361   3.3760440
  48.2549782  14.3424120   3.9470038  49.7590218  14.5104761   3.9226115
  17.7336349  13.9032984  85.3256989  18.4461365  14.2187338  85.8816452
  17.5062027  13.0479078  85.6901398  67.3045044  43.4310608  73.1927795
  66.7207184  44.1880264  73.2420502  67.1602859  42.9634247  74.0154266
  60.3775940  41.4359360  76.3394241  59.8575630  42.1870918  76.6250153
  60.7451897  41.0779877  77.1474991  10.1900253  45.7785110  36.6409721
  10.2483807  45.2932053  37.4639549   9.2955227  46.1189384  36.6265717
  69.4291611  40.4057884  10.8403492  70.2444992  40.6090431  11.2987537
  69.5175247  40.8385620   9.9911556  60.7356415  13.0531187  58.2078018
  61.1021729  13.1408663  59.0876808  61.3708611  12.5141535  57.7363777
  73.8874207   1.5674231  37.8953781  74.0075150   2.5097346  38.0130920
  73.0198517   1.4841387  37.4996147  67.7062531   6.2239904  20.7911434
  67.5243988   7.1284189  20.5358582  68.5485458   6.0245194  20.3825054
  34.3667068   3.7514031  70.0212708  33.9519501   4.4509454  69.5164413
  33.7744560   3.0052307  69.9280167   9.0059357  41.6243095  18.7150669
   8.8101397  41.9138794  17.8239746   8.3254385  42.0286560  19.2532673
  49.1518898  49.4826851  32.6975021  48.6006699  48.8522453  32.2338905
  48.7379684  50.3297882  32.5322189  16.9222012  45.4419365  59.8525581
  17.1653194  46.2804031  59.4600067  15.9862804  45.5253525  60.0351143
  80.3275681   6.0721145  58.0616493  79.6170654   6.6256208  58.3857651
  80.9414520   6.0170784  58.7940102  68.1592178   9.3078079  59.5905418
  67.2508621   9.5305681  59.3868294  68.3681946   8.5872078  58.9961548
  33.8084106  50.8215904  33.2291374  34.1178093  51.6308746  32.8222504
  33.5201797  51.0875092  34.1023178  37.0578690  47.5243187  56.7951622
  36.1311035  47.5570717  57.0323563  37.0722160  47.7181129  55.8578949
  16.5464153  59.9889755  54.6033592  17.3138714  60.0044556  55.1751976
  15.9088163  59.4510117  55.0727119  48.7841415  38.6174278  75.3632278
  48.1172981  38.2262764  75.9276352  48.3519592  39.3770828  74.9728775
  53.8878021  17.0030918  47.0358429  53.8731041  17.9302483  46.7983665
  53.0083427  16.8275871  47.3704720  54.1480293  38.6319160  49.4755745
  54.7674904  38.0595474  49.9282265  54.6366081  38.9664726  48.7235107
  65.0833664   6.2634993  30.7186375  64.6611710   6.3152523  29.8611355
  64.4397888   6.6300907  31.3249836  84.4221573  69.3403702  17.4328156
  84.8713455  69.6720505  18.2102776  85.1173935  68.9513626  16.9022083
  32.7950592  53.7932205  52.5661621  33.2257843  53.0971947  53.0624084
  33.4585152  54.0886154  51.9426270   2.2547319  69.7140427  41.8686295
   1.6433064  70.2901993  42.3273621   3.0199594  70.2634201  41.6987953
  83.0666962  70.8892593  10.9221659  82.9284744  70.1416092  10.3406601
  82.5156174  70.7059784  11.6830568  57.1982803  50.2105103  88.9256287
  56.5439835  49.5746918  88.6360321  57.9080200  50.1310005  88.2883072
  23.0848370  52.1968155  69.4284744  22.9442463  51.7707253  68.5829468
  22.4056473  52.8698044  69.4734039  52.7849350  17.5521622  39.5463905
  52.0632401  17.7056274  38.9366074  52.3735161  17.1382961  40.3051262
  48.3284531  43.6921883  28.1022606  48.7436714  43.0863647  27.4884167
  48.1042747  43.1503754  28.8588409  67.3684311  61.6663666  66.6390610
  67.9800262  61.2424583  66.0370026  67.5922852  61.3094559  67.4985580
   7.2241716  23.9415894  76.0056458   7.3261304  24.1568394  75.0785522
   6.8220739  23.0729427  76.0070343  30.4185677  50.0934067  24.6731758
  29.7061291  49.9524155  24.0496502  30.1315269  49.6470108  25.4697742
  73.8230515   1.7795901  59.6075706  74.3458633   1.1892906  60.1501961
  74.0535965   2.6558523  59.9161911   9.6259651  43.5758438  34.8271103
  10.2683372  44.2408409  35.0748329   8.7868471  43.9336205  35.1171188
  20.3931236  59.7673416  39.2068520  21.0099220  59.3515968  38.6044006
  20.9407940  60.1028175  39.9166031  44.7353668  11.0671997  11.9123936
  45.3098297  11.2003756  11.1584148  44.6366997  10.1170588  11.9734631
  45.2497940  69.4656448  42.5462379  44.3794098  69.7522278  42.8228874
  45.4222946  68.6835403  43.0704460  68.3197403  18.5015812  74.1693878
  68.6095810  18.2120018  73.3043060  68.2115936  19.4485531  74.0811768
  58.6840363  47.2103233  23.0456791  58.4219208  48.0835609  22.7541599
  59.5313225  47.0619316  22.6257763  60.6864586  31.1868057  63.5693703
  61.0342102  31.2406998  64.4595337  59.7992973  30.8445644  63.6791191
  80.6617889  35.2968788  88.1216202  80.1095428  35.6072960  88.8391800
  81.5279999  35.6562691  88.3133011  38.8866005  31.0537987  22.8542175
  38.5199432  31.1556873  23.7325172  38.3777962  30.3435612  22.4631748
  30.8597679  19.5093842   7.3452415  31.2549953  20.2084713   6.8243723
  31.5480633  19.2480946   7.9569678  44.5697250   3.4298706  46.7648621
  43.6588097   3.2752497  46.5147552  45.0142708   2.6041858  46.5728836
  67.5424347  57.9536018  65.2892761  67.8644485  58.7966805  65.6082687
  67.9389572  57.8578644  64.4233398  34.2998734  49.5716820  28.9022331
  33.6743736  50.2376213  28.6167450  33.8541412  49.1144524  29.6153240
   7.6795726  59.6796150  85.0663910   7.4698300  60.1931458  84.2863159
   7.9322615  58.8209763  84.7271042  61.2315216  19.9705601  75.6773758
  60.6377831  19.9903412  74.9268341  60.7157211  19.5757866  76.3804703
   0.9618064   5.1299715  52.4876328   0.9583583   4.3410277  51.9456100
   1.6333832   4.9632478  53.1490097  79.7847137  12.0076303  72.6680679
  79.0605927  11.8340750  72.0666122  80.4170074  12.5010672  72.1456146
  85.2142410  15.4663620  16.8508968  86.1065521  15.2193890  17.0938416
  85.3203278  16.2558479  16.3201542  23.6107693  20.8303852  76.1550751
  22.9945183  20.1398125  76.3991547  23.0588760  21.5919018  75.9769211
  53.4257927  36.8215942   9.7127905  54.1449394  37.0247040  10.3109589
  53.6411324  37.2957230   8.9096327  83.1468506  17.9921017  77.6529160
  84.0792618  17.8270397  77.7928925  83.0607300  18.0904427  76.7046814
  69.9556427  49.1469498  15.7788687  70.4136353  49.8026772  16.3046989
  69.9502335  48.3619232  16.3265343  68.7569733  15.7736301   3.1174302
  69.0672836  16.4702988   2.5389898  69.3942642  15.0681705   3.0060072
  56.9061508  39.6760101  27.2042465  57.8238029  39.4592476  27.0394478
  56.8259354  39.6689415  28.1580524  55.8931656  70.4152603  64.3468704
  54.9527359  70.5577545  64.2395477  56.0820236  70.7209625  65.2340622
  74.5673752  54.4710846  40.1885605  74.1366425  54.1305695  39.4045029
  75.4234314  54.0429001  40.1966324  78.4417953  11.8857203   3.5166600
  77.8754730  12.5082684   3.0606563  78.8274994  12.3920078   4.2315993
  27.0082951  60.3585014  11.2819777  26.9335461  60.5700760  10.3514509
  26.4011345  60.9594536  11.7137680  40.4997559  69.0529785  33.2485275
  39.9024162  69.8001480  33.2145309  40.3084145  68.5569534  32.4525528
  64.8352432  36.2146950  76.0747299  64.6034393  36.5488853  76.9412231
  65.2535477  35.3712196  76.2473602  63.5117836  33.7017250   7.1923003
  63.0312843  33.8320160   8.0098457  63.2516060  34.4399376   6.6413155
  66.9768600  47.2902794  56.5470428  66.0520477  47.5141373  56.4429321
  67.4271164  47.8204269  55.8894386  45.2484055  32.4223061  56.3810349
  44.3297729  32.6704178  56.4849014  45.2883987  31.5171318  56.6897240
  26.7819595  34.5579605   4.8002605  27.1985874  34.0956650   4.0729785
  26.1239700  33.9449806   5.1281939  69.7113266  47.5903358  18.0969315
  70.0612411  46.7586021  18.4163151  68.8445587  47.6552696  18.4978333
  63.0222816  21.3360348  -0.0164700  62.0924721  21.4378700  -0.2197488
  63.0687294  20.5275669   0.4938754  64.8878250  14.8308849  82.8179169
  65.6512375  15.3905373  82.6757126  64.8637924  14.2590580  82.0506744
  44.8981285  15.8843403  76.7847824  45.3160858  16.2271290  75.9948196
  45.6007576  15.8553505  77.4341660   0.9749752  68.4190674  26.4263000
   1.3003494  67.9696426  27.2062893   0.8659105  69.3291245  26.7022324
   7.1064987  23.0111675   6.6139770   7.3582811  23.9334908   6.5675368
   6.1804752  23.0275631   6.8557281  54.1318932  32.6558952  44.2977791
  54.7647400  31.9378567  44.3103180  54.1631203  32.9870262  43.4002190
  53.6147385  65.6683731  57.8697777  52.9126892  65.0707016  57.6125793
  54.2220154  65.1233139  58.3701324  82.3420715  48.6712761  38.5676270
  81.6284866  49.2497826  38.2986526  83.1309280  49.2057686  38.4767456
  24.6088696  69.9320908  84.5998993  24.0502377  70.3837128  83.9672852
  24.0313435  69.2914276  85.0149155  64.1035690  57.2306404   2.8351638
  64.1049805  58.1654892   3.0408056  64.7339249  56.8499336   3.4466724
  28.4327393  12.4050865  82.1716461  27.9601154  12.7410107  81.4100647
  28.0108414  12.8265305  82.9203949  34.2864075  46.7958260  35.0913963
  34.5156059  45.8681259  35.1468582  34.7395973  47.1081009  34.3082428
  74.8235703  11.1392498  78.3349304  74.6270294  11.6016235  79.1496811
  74.3211823  10.3265972  78.3935394  67.3027649  34.8537674  28.6040974
  67.7390060  35.5739441  28.1488266  66.3740463  34.9719505  28.4047222
  83.2545624   9.4681654  10.7955151  83.5751419  10.3071537  10.4645166
  83.0198364   9.6440639  11.7066650  37.2009773  10.6872616  22.9500141
  36.3909531  11.1564331  22.7500877  37.8756180  11.3662643  22.9567814
  59.4080544  29.2291431  36.8710861  60.1855469  29.7715912  36.7388382
  59.5032692  28.5160847  36.2396507  22.0473728  53.6950607  72.9667892
  21.0984325  53.5834503  73.0241241  22.2693367  54.2471466  73.7165604
  17.6975365   6.1018500  21.7613602  18.6318417   5.8937597  21.7627602
  17.2792263   5.3279567  22.1386375  79.5778122  53.2916870  88.2479858
  80.3565521  53.0646858  88.7561798  79.7860489  54.1400948  87.8567352
  28.1989231  10.6153069  69.2081833  28.7988777   9.9680595  68.8375626
  27.8679142  10.2051630  70.0072098  80.9483261  56.3413582  21.0888538
  80.9497910  56.0597496  22.0036907  80.2890320  55.7886925  20.6691818
  15.6190062  11.9374027  64.0286331  16.5757504  11.9601078  64.0475922
  15.3653517  11.7705612  64.9364090   8.1897182  61.5897827  86.9844513
   8.0103283  60.8788834  86.3690872   7.4464188  62.1848412  86.8862534
  79.0353165  40.5374107  56.7505493  78.1933289  40.4804916  57.2022629
  78.9007645  40.0597839  55.9320145  77.7241516  63.7279968  18.9081974
  77.9068909  62.8094559  18.7104149  78.1493759  63.8804779  19.7520943
  42.4678154  34.2783165   4.7525158  42.2511177  33.7005005   5.4842272
  42.3413124  33.7363396   3.9737422  26.6485806  37.5913010  30.4282990
  26.6346741  37.6204071  29.4716434  26.8989029  36.6912766  30.6369247
  10.8928623  45.4705429  21.4259491  11.3640823  46.2014580  21.8258820
  10.9785957  44.7561722  22.0572624  64.0477676  48.5682831  33.6062088
  64.0327454  47.6123772  33.5587273  63.7439384  48.8556595  32.7452011
  72.1868820  54.2779427  18.7168140  72.9463425  54.6260376  18.2496185
  72.3455353  53.3351097  18.7629509  76.6881638   6.0862780  54.5051804
  76.5086517   5.4157085  55.1642265  77.5308380   6.4583259  54.7653961
  21.3972778  54.6685257  40.5578308  21.5900269  53.8011246  40.2018890
  20.6968613  55.0062485  39.9996300  10.3106594   5.9990611  71.6681366
   9.9485674   6.8735619  71.8108597   9.5829964   5.4950638  71.3038177
  35.2070198  54.1362648  12.1738043  34.6688995  54.9207954  12.2795057
  34.8981133  53.7420578  11.3580780  54.8245468  16.3861046  76.8738174
  55.6248589  16.9058762  76.9484558  54.1160164  17.0199070  76.9856796
  41.6609917  54.8194199  58.6096535  41.0667114  55.1915741  59.2612381
  42.2950668  54.3181572  59.1224060  53.8936234  32.4394951  69.1253433
  54.0803375  33.1938705  69.6841660  54.7439651  32.0184555  68.9993439
  33.8514862  41.7188568  12.7275085  34.7839737  41.5754280  12.8891401
  33.4142685  41.0153046  13.2071772  64.8850708  46.2870216  35.6743851
  64.5170822  45.9400063  36.4870338  64.6794434  47.2215729  35.6982231
  63.2512817  11.6133928   8.2591209  62.7456627  11.7894707   7.4656591
  62.6198311  11.7103128   8.9719410  39.0542374  37.0282974  32.5484085
  39.0716095  36.2841225  31.9466343  38.2003021  36.9699326  32.9769135
   0.3012724  71.8151016  87.7470398   0.3402138  71.3155212  86.9314804
   1.0657260  71.5230255  88.2435608  63.9714584  22.1601105   6.2098255
  63.7677345  22.2784634   5.2820745  63.8604622  23.0305042   6.5923495
  72.5811996   8.9021711  46.4002838  73.5349426   8.8409910  46.3468552
  72.3435364   9.5357218  45.7232628  11.6769695  33.7805824  84.3371735
  11.6268711  33.6259918  83.3938751  11.0979166  33.1209717  84.7190704
  32.0299110  17.3702278   5.3215227  31.2685966  16.8849030   5.0035791
  31.6904640  17.9049110   6.0392423  61.2745514  25.0336723  37.9394455
  62.1768608  25.1678352  37.6494942  60.9800148  25.9016857  38.2151871
  23.6831894  27.7114677  15.1259995  23.5736313  27.2666855  15.9664745
  23.3711967  27.0796261  14.4781828  13.6920881  45.9268379  54.6472130
  13.9142179  46.7139053  55.1446228  13.0571947  45.4674034  55.1968117
  30.5027161  65.7997131   4.0780287  29.9326916  65.8713608   4.8436460
  31.2752457  66.3171768   4.3053341   4.3491774  31.8654709   1.9069510
   4.9549870  31.1328468   1.7951961   3.6046300  31.4909248   2.3776917
  33.5323944  39.6341667  80.6775589  32.8276138  39.0101166  80.5041275
  33.2329063  40.4508095  80.2780228  42.9285164  12.3779926  60.8220520
  43.4121170  11.5522852  60.8458977  42.2068596  12.2507706  61.4378891
  15.7606754  66.6450043  26.1276417  16.4742889  66.2840729  26.6536808
  14.9881020  66.1499634  26.4002151  71.3597794  31.9356403   3.2446592
  72.2335815  31.6950588   2.9367471  70.7714539  31.3316059   2.7916102
  75.2133713  26.0550537  67.8118973  75.0819092  25.7412395  66.9172058
  75.5105057  26.9589520  67.7074356  27.4272881   6.8137317  13.1620665
  27.5916176   7.7042041  13.4723673  27.8304653   6.7842150  12.2944212
  82.6126709  10.4372129  48.9190903  82.2900467  10.9914351  48.2084732
  82.4596100   9.5430088  48.6138039   3.7507365   6.2219281  20.8842411
   3.6646156   6.9903293  21.4484882   3.0517485   5.6343856  21.1713676
  27.1895561  68.1155472  51.8913727  27.3267651  69.0617065  51.9382210
  26.2751350  67.9932175  52.1465187  10.4705410   9.0318241   8.2913380
   9.5179596   8.9397192   8.2729845  10.7663622   8.6236095   7.4776540
  20.1785202  39.7285004  51.0706520  19.2664337  39.9785004  50.9229012
  20.1964779  39.4104309  51.9732819  85.7010040  19.7037811  88.0948868
  85.8738022  20.6430721  88.1589584  84.7639389  19.6200581  88.2713165
  74.5923157  67.1771545  12.3081446  75.2221985  67.1940613  13.0286922
  75.0443726  67.6111679  11.5846071  80.6698761   9.2709923  79.7244492
  81.0645676   8.4006567  79.6699905  81.2451859   9.8281136  79.2001801
  74.8980713  29.8738117   5.0533967  74.0336075  29.5002365   4.8820028
  74.7217865  30.6546078   5.5782924  44.5560532  61.2834854  29.8022766
  44.3644676  60.5846138  29.1768894  45.5099487  61.3618355  29.7890873
  22.5961285  26.0030746  81.2981949  23.0015907  26.7443981  80.8484497
  21.7166691  26.3092117  81.5196915  55.6461601  15.3358326  80.2620697
  55.1802788  15.7301283  79.5247040  55.2484093  15.7331686  81.0367661
  80.7604752   8.5370150  36.9746895  81.1496582   9.4089518  37.0417137
  80.2872238   8.4219694  37.7987251  46.7952957  45.9684525  78.3142853
  46.1727409  45.6203690  78.9526443  46.6566010  45.4372101  77.5302048
  85.0644684  24.1497974  33.6625519  85.1797256  24.2776413  34.6041489
  84.9114914  23.2099094  33.5654068  12.1275463  65.7727509  81.2920074
  12.4550142  65.6882095  82.1874619  12.8858280  66.0651245  80.7862778
  49.9673805  53.1154480  16.8779545  49.2043686  52.5486755  16.9911785
  50.4169464  53.0834236  17.7224064  83.0805664  49.7676430   7.2770004
  82.8465271  49.2742500   8.0631447  83.7428131  49.2287292   6.8442969
  80.3215637  46.5990639  32.4527740  81.1326599  47.0658150  32.6540184
  79.7064667  47.2867126  32.1977806  83.8175125  36.2808800  29.6067047
  83.8899536  37.1487656  29.2095184  84.5180283  35.7716713  29.1990070
  69.7896423  53.5939445  24.8398876  69.8685760  54.5468636  24.7957611
  69.0343170  53.4422302  25.4079533  83.5882187  47.3335190  31.6375332
  83.9091263  47.1385345  30.7570591  83.8766022  46.5904655  32.1675720
  47.4227486   2.9740138  22.1179581  47.7881660   2.0900085  22.1531277
  48.1669655   3.5481844  22.2987938  37.7537918  60.5168762  78.2010956
  37.5763474  59.7125206  77.7134933  37.4025536  61.2146797  77.6479874
  79.3105392  13.0236626  46.4619713  78.5052414  13.3980656  46.1048393
  79.9163208  13.7630253  46.5130692  73.0603943   1.6052045  56.4628143
  73.6030045   1.8452492  57.2139320  73.5863419   0.9662394  55.9818420
  76.5723648  20.0364990  30.3985786  76.4889374  20.8927937  29.9790173
  77.4757233  19.7717743  30.2250919  67.4148483  31.2647247   6.2597084
  68.1636429  31.3829212   6.8441472  67.7507324  31.4886532   5.3917990
  21.2897930  19.2173290  75.8249893  21.3680477  18.8518600  74.9437714
  20.4478073  19.6726074  75.8215637  71.1794815  69.5928192  21.8787899
  71.4543457  68.6797104  21.7956352  71.8502502  70.0885773  21.4091835
  64.1481705  67.9834747  29.7698460  64.7345657  68.2932129  30.4600868
  63.3683090  68.5320740  29.8540459   2.8300447  31.5544567  12.2709322
   2.5778494  32.4302101  11.9782104   1.9991856  31.1065903  12.4300566
  81.4089737  37.3907166  65.7651443  81.1172714  36.7005234  65.1695099
  80.8287354  38.1288605  65.5788803  76.2850189  65.1228714  84.5745544
  76.8084793  64.3990631  84.2305679  76.8019714  65.9050751  84.3818283
   3.0004826  50.5015793  53.3138428   2.7717009  50.9765625  54.1127663
   2.6687167  51.0521202  52.6045685  37.6913376  18.8877983   2.2053003
  38.4071007  18.2780514   2.0260582  38.1214256  19.6617546   2.5689602
  54.8983002  34.7714386  15.3851128  54.7179298  35.6266899  15.7753000
  54.3097534  34.7229385  14.6317911  45.6268883   2.5395324  81.1488419
  45.8899193   2.6251354  80.2324829  46.1592255   1.8182694  81.4844513
   0.2822177  19.0298786  75.3936615   0.6964933  18.9839478  76.2553482
  -0.6021040  19.3510551  75.5698776  41.4191551  39.7317581  70.6516571
  41.8161049  38.8716316  70.5143967  40.6619492  39.5595398  71.2113113
  47.2970047  40.5315781  33.4827080  47.2423706  39.8928871  32.7718506
  47.1166687  40.0247650  34.2744446  30.9287987  34.7159233  69.0951080
  31.0943661  35.2395821  69.8790741  30.8602295  35.3578453  68.3883743
  25.8488960  61.5346718  26.6858902  25.8584099  62.2854080  27.2796402
  26.3465824  60.8589172  27.1462116  29.1109314  57.3891106  83.8202133
  28.6313000  58.0789299  83.3615952  29.2355690  57.7318115  84.7052307
  59.3342438  33.0368843  59.1192665  58.9001884  32.2323608  59.4031219
  59.4554672  33.5404510  59.9242210  56.1755791  65.1755295  70.7343140
  55.6268158  65.4108582  71.4824524  55.7500992  64.4050140  70.3581390
  40.2169609  69.2987518  68.2528763  41.0512848  69.7125244  68.0317001
  39.6665764  70.0189209  68.5605545  63.6059875  54.6702995  11.0005674
  63.4141312  55.6052017  10.9272299  64.3410873  54.5291290  10.4039660
  36.3933334   3.8127451  45.2855339  36.7628708   4.4001393  45.9448090
  36.7404785   4.1368251  44.4544563  34.4609032  71.2126617  85.5029602
  35.2893372  70.7344971  85.5388489  34.3220634  71.3816299  84.5710754
  69.7264023   7.4539542  47.9084015  69.9963226   6.8550773  47.2121849
  69.3895721   6.8826056  48.5985756  52.1265144  10.4599257  21.6418953
  52.6294594   9.7406635  22.0239162  51.3896027  10.5813694  22.2405930
  21.6638527  62.4324875  37.2713966  21.6974659  62.9307480  38.0879974
  22.3434715  61.7656174  37.3695717  67.5276642  29.8643494  39.8321800
  67.7919617  29.7216187  40.7410316  67.7680283  30.7733459  39.6527824
  72.5034256  38.1820869  41.1131935  72.4318085  38.1168633  40.1609077
  73.0421753  37.4319649  41.3647957  43.0823784  44.6149673  56.3230057
  42.7538376  45.5005608  56.4779854  44.0293427  44.7228928  56.2344627
  44.7989693  61.9153175  67.8544159  45.3018303  61.1546516  67.5633011
  45.1459885  62.1132126  68.7242737  69.1128235  17.5862255  71.7934036
  68.8212051  16.7435760  71.4453659  69.9783707  17.7184887  71.4066544
  72.3403015  38.4200897   2.0469155  73.1368942  38.0655861   1.6519409
  72.1499100  37.8281555   2.7746496  44.9869499  48.0343361  58.9307938
  44.1089096  47.6690521  59.0396500  45.0161324  48.3196678  58.0175743
  83.6812134  12.6904764  75.2613449  83.8767242  13.4060030  74.6563416
  84.5394058  12.3756800  75.5453110  53.8744087  54.4279938  47.1610870
  54.0378571  54.7610168  48.0434761  54.7258339  54.4741325  46.7261429
  69.2268600  16.9900646  45.2061119  69.5207291  17.0394173  46.1157494
  69.9169388  17.4274635  44.7074089  12.8703556  17.0426674  82.2640839
  13.4415998  17.0422134  81.4960251  12.1244497  17.5848980  82.0074844
  13.6909742  47.7510605  34.0739212  13.4540758  48.5800552  34.4897079
  14.4563122  47.4481544  34.5625267  84.5855026  13.9348602  41.6085052
  85.0452194  14.1033344  40.7860031  84.0690842  13.1473103  41.4372902
  12.7497005   4.6967721  26.1779690  12.6853704   3.9331543  26.7515373
  11.9274673   4.6981735  25.6879063  82.7432022  57.8834190  35.6926308
  83.1324158  58.6871986  35.3481216  83.4587631  57.2477150  35.6833458
  23.6985455  15.3342485  76.3512344  24.4464397  15.7458286  75.9182358
  23.4345741  15.9632893  77.0226898   5.0748644  50.7039490   7.3972192
   4.9708867  49.7725563   7.2024679   6.0158491  50.8169937   7.5313859
  22.3170376  49.6335030  60.1358376  22.8691902  49.5787354  59.3558655
  22.7349663  50.3019943  60.6786880  81.8390732  39.0100670  48.4464035
  82.6212387  39.0205498  48.9980774  81.2239456  38.4448509  48.9137077
  83.5290375  55.7019005  80.4638824  83.5416946  56.5891724  80.1049728
  83.3797607  55.1385002  79.7045822  67.3742981  37.7452888  43.0823364
  67.2084274  38.6852798  43.1539764  66.5189819  37.3658371  42.8806190
  12.2890377  70.5033646  81.0140533  12.6452904  70.1469193  80.2002563
  12.9397144  71.1446457  81.2997284  36.6388855  39.2021675  52.5210075
  36.3784409  38.2935753  52.6722183  37.2174721  39.1619148  51.7595291
  43.2480431  34.3975639  32.1468086  43.3088036  33.9676552  32.9998741
  43.6617737  33.7842026  31.5394821  33.1580315  71.2236862  43.0257530
  33.2758751  71.2414169  42.0760002  33.9347763  71.6632385  43.3717270
  68.9849854  68.0842590  84.2563629  69.5399780  68.8621750  84.2009964
  68.7082367  68.0521622  85.1721191  52.1663475  66.5762329   2.6397438
  52.3882599  67.4595566   2.3452580  52.6061478  66.4881134   3.4853458
  66.8449173  49.2501755  88.1140442  66.5122910  48.3856468  88.3552399
  66.1341324  49.8511353  88.3373337  60.3587074  53.9788017  54.9772224
  60.2635155  54.7902870  54.4785614  60.2241821  53.2842712  54.3324280
   4.1322637  60.4678383  18.0652618   4.4577332  60.0756912  18.8755207
   4.7860694  61.1296768  17.8400059  18.5199337  23.2554455  72.1882248
  17.9532452  24.0242615  72.1248322  19.2881145  23.5631371  72.6693268
  77.1730194  51.1669044  26.4716225  77.6695480  50.3643112  26.6314373
  76.2844772  50.9606209  26.7617321  16.0382786  65.8001556  71.6909409
  16.4047508  65.6343613  70.8223572  16.7413769  66.2417679  72.1672440
  67.8886337  41.0861588  23.3615990  68.1433334  41.1897049  24.2784634
  66.9377441  40.9795685  23.3877430  31.2317982  12.3890839  67.9366837
  31.5168037  11.6901226  67.3480759  31.7956772  12.2999878  68.7050171
  47.5211220  28.4195366  35.0022545  47.2728348  29.3101730  34.7545624
  47.0355606  27.8585644  34.3974609  81.9809570  71.7668686  44.3353729
  81.1663895  71.5476761  43.8829803  82.3570404  70.9199753  44.5753059
  52.4799423  63.4051437  26.9470253  52.2074165  62.6693993  26.3987179
  51.7701759  64.0419159  26.8634739   0.9509277  11.6188221   1.3206842
   0.4179165  11.9600115   0.6025475   0.7807520  10.6768732   1.3187106
  83.3870239  41.1858864  46.1827927  82.6562042  41.5201721  46.7027740
  84.1612625  41.6002998  46.5636444  28.0812283  14.6258106  88.5088272
  28.0412941  13.9661655  87.8163605  28.5820026  14.2077227  89.2092972
  33.0965195  56.1137657  54.2867699  32.9213066  55.3332863  53.7610435
  33.1399307  56.8268738  53.6497269  24.0003319  30.3813477   4.5107360
  23.5983696  30.7458248   3.7221844  23.8599262  29.4373970   4.4367394
  71.4113998   4.0479903  85.1116714  71.9335632   4.7982378  85.3957596
  71.4013672   3.4626391  85.8689651  28.6123466  31.9679623  73.5481415
  29.2929764  32.1253052  72.8937607  28.4520855  32.8271751  73.9384003
  53.9279747  29.8123226  73.8648987  53.3638802  30.4621086  73.4456024
  53.3568993  29.0582314  74.0113525  62.4634132   5.5139856  83.9194031
  62.5349998   6.4684558  83.9096832  62.8635979   5.2522192  84.7485962
  35.6252708   3.5213513  80.4668884  35.8300171   4.4298882  80.6879578
  36.4782753   3.1122673  80.3210526  73.0425491  17.4595070  31.7667313
  73.6585236  18.1670685  31.9569187  73.1549377  17.2890244  30.8315639
   9.4731112   1.3014382  63.9339638   9.9307938   1.4311471  63.1033401
   9.2783899   2.1869164  64.2409592  77.7606201  25.9284840  45.4535599
  77.2024765  26.7049217  45.4104996  77.6024399  25.5678902  46.3260155
  58.8695679  63.4484024  10.3563976  58.9887466  64.0188293  11.1157665
  59.3449631  62.6484718  10.5807714  56.6415977  55.6673775  27.5649605
  56.4209290  56.5987892  27.5624924  56.8625259  55.4711647  26.6545086
  58.3405418  14.3407850  69.3906479  58.1352615  14.0242167  70.2703476
  58.5307007  15.2713737  69.5092926  62.4431763  65.2071609  76.0783920
  62.8928719  65.7189026  75.4059906  63.0977325  65.0882492  76.7666168
  55.9696312  36.2288361  73.6214447  55.0459099  36.4080772  73.7970734
  56.1843834  35.4937935  74.1957550  27.9623699  52.5116692  39.2601891
  27.8367004  52.1564331  40.1401024  28.8350525  52.9042816  39.2827797
  47.7327003  19.4191036  81.8150558  47.9362640  18.7406254  82.4588394
  47.6259384  20.2167454  82.3333206  74.2107544  27.8119221  38.4412918
  73.3716202  28.1049995  38.7965317  74.0884094  26.8766232  38.2785645
  11.2687035  71.1063614  71.2057877  10.8517466  71.9595261  71.0853882
  11.6904573  71.1647491  72.0630798   6.1679010  36.5694962   5.5271845
   5.3103995  36.1487503   5.4647837   6.6164703  36.0962524   6.2279401
  35.3960304  34.7220802  26.3536110  36.3217278  34.5342979  26.5087109
  35.2232513  35.5130157  26.8642941  23.2339516  15.1031075  82.8128281
  22.3287201  14.8073406  82.9093170  23.3070278  15.8488798  83.4084091
   7.6720500  53.3209496  11.0746889   8.6290531  53.3379822  11.0839901
   7.4336672  53.7133865  10.2348080  13.9808903  52.0196648  68.6220474
  14.1127930  52.4296989  69.4768677  14.8634644  51.9214783  68.2647629
   8.3693590  24.8225021  66.8085022   8.4059715  24.5588551  67.7279434
   9.0231104  24.2734108  66.3756714  44.4588127  23.8645782   8.8166380
  43.6070480  23.5226345   9.0883074  44.6885681  23.3487072   8.0437717
  51.0803947  29.4528370  53.1346283  50.6970024  29.0002632  52.3833504
  50.4148521  30.0891705  53.3960953  15.5347881  11.4567871   6.6461282
  15.8576927  12.3489523   6.7726455  14.8556719  11.5405302   5.9767852
  86.1284866  25.4563046  69.4299316  86.3060150  25.2884750  70.3554306
  86.2366791  24.6044540  69.0069885  82.5002136  57.5589752  17.7288246
  83.1017990  58.0474281  17.1669121  82.3042145  58.1589012  18.4484825
  48.0934334  47.8583183  79.8995895  47.5139542  47.4121552  79.2820358
  48.5310249  47.1500473  80.3719254  72.0040436  54.7690582  81.9622574
  72.7012253  55.3917580  81.7563095  71.3980637  54.8352661  81.2242584
  15.2885847  11.5954361  80.6397324  14.8146973  11.9889030  81.3724289
  14.8539038  11.9410505  79.8600922  62.4171371  11.4863663  62.6080055
  62.8244553  11.7582674  63.4304390  62.2474709  10.5512962  62.7224121
   7.3620677  45.7077370  62.3856697   7.5970592  46.3933372  61.7604027
   7.7038536  46.0202026  63.2233963  60.8548965  23.4186211  24.7907181
  60.2958908  22.8555737  24.2552567  61.6989136  22.9676018  24.8120022
  33.2734222  38.3485336   0.5494240  33.9565277  37.6826286   0.4708832
  33.4719849  38.7997322   1.3699268  18.3893929   6.5524712  17.1624851
  18.8564682   5.8707595  16.6794319  17.6293182   6.1047311  17.5340328
  50.9118233  42.2974625  65.1225281  51.4672279  43.0733566  65.0467300
  50.5861740  42.1483727  64.2348633  57.3699074  38.3030319  23.9818783
  57.6040955  39.0305557  24.5581551  57.0353928  37.6279297  24.5722752
  35.0917473  33.6751938   3.7395990  35.8059616  33.7844887   3.1117575
  34.3339462  34.0742874   3.3121779  11.5573530  55.8177681  28.2630196
  11.2425785  56.4030952  28.9518909  11.7589712  56.3982544  27.5291119
  40.8181190  45.3988228  75.2372131  40.0648689  44.8091965  75.2027206
  40.5001183  46.1660576  75.7130814  17.0800381  31.3296909   7.9259224
  16.9187622  30.5442944   8.4487743  16.3384361  31.9029732   8.1198454
   7.0617175  28.7258492   6.7884865   6.1897316  29.0791969   6.9646072
   7.4584274  29.3558769   6.1868896  67.7725372  32.1037979  51.6560059
  67.8347015  31.4534740  52.3556099  66.9920349  31.8511620  51.1628265
  13.0790768  43.5478973  37.2670212  12.4793882  43.6752243  36.5319061
  12.5443172  43.1316414  37.9430351  37.4212532  21.4163742  73.7433548
  38.2086029  21.9172935  73.9564056  37.7005997  20.5018024  73.7852173
  57.4320717  47.3779297  61.5406189  57.9419518  48.0955315  61.1647148
  57.8417854  47.2120895  62.3896561  67.6619720  45.4164238  54.1128922
  67.0968399  44.6833649  54.3567963  67.7336578  45.9395485  54.9112892
  78.9923325  56.9421730  32.3843460  79.1494522  57.6198006  33.0418892
  79.3367996  56.1410294  32.7789879  59.8591461   1.5231197  27.3311520
  59.5244484   2.0288455  26.5905762  60.0619354   0.6635321  26.9620762
  54.3457031  47.6455116  73.5397797  53.6984825  48.1005058  73.0009689
  55.1870804  48.0041275  73.2574463  10.0372190   3.8250635  84.8655167
  10.1920567   4.5002956  84.2049713   9.7538500   4.3092232  85.6410980
  79.2090225  51.5212440  85.2307739  80.1551666  51.4284515  85.3422623
  79.0810013  51.5473557  84.2825317  80.4126205  46.3246727  54.3535271
  80.0927353  47.0279312  53.7884331  80.2910690  45.5281639  53.8367805
  46.3925705  51.0510788  84.1991348  47.0510864  51.5205383  83.6870880
  45.6622772  51.6656647  84.2711487   7.3469329  51.4692039   8.5725880
   7.9059563  50.8820915   8.0636454   7.9488716  51.9185181   9.1659012
  53.2919273  31.8714676  25.9748096  53.7009583  32.4065285  26.6549835
  53.3458595  30.9763088  26.3094940  84.2319641  40.9217644  38.7364655
  84.6182938  40.0810318  38.4911995  84.6069870  41.1162071  39.5954056
  49.9739838  30.1649437  83.2413483  49.7205620  30.9524651  82.7598724
  50.7665901  30.4181690  83.7145081  42.6705170  35.3635750  12.8362408
  42.6694221  35.2071533  13.7805719  41.8971672  34.8994560  12.5156879
  48.9242096  28.3351746  89.1309433  48.2093544  28.8987923  88.8350601
  49.7083168  28.7146301  88.7341843   2.2995276  35.6716003  81.2455215
   2.4386978  34.7485123  81.0339279   3.1405456  36.0893021  81.0599213
  56.5663452  68.2079391  26.1390057  55.7723961  67.8760529  26.5582104
  56.2614937  68.9238358  25.5815220  38.0209427  18.2230721  85.0111847
  38.5171432  17.4352760  85.2334366  38.6635399  18.8039150  84.6038513
  38.2210922   2.8224525  10.3498125  37.7193642   3.5490785  10.7192926
  37.8605156   2.0430148  10.7725315  56.0942841   0.3231853  34.2092056
  56.6820717  -0.0280028  34.8780899  55.2512970   0.4119821  34.6538544
  26.8712864  39.2764435  77.1432648  26.9960327  39.9090958  76.4358597
  25.9394627  39.3340034  77.3545074  36.8358154  70.7927856  78.7346878
  36.3432655  71.0594177  77.9584579  36.9506874  69.8479996  78.6326141
  27.9232788  59.8274994  15.4863110  28.2240734  59.4303894  14.6689625
  27.1679935  60.3573990  15.2313957  49.4047813  37.7678490  66.0781860
  48.9461479  37.1421318  65.5175095  50.2310905  37.3354378  66.2937393
  17.8044834  69.1662292  59.8990746  16.9116611  69.4759064  60.0513954
  18.1869793  69.8177643  59.3113403  38.3687820  39.8621292   6.2204762
  38.2092972  40.7778854   6.4489179  37.7490540  39.3696060   6.7586155
  30.6764221   2.1352952  80.6007385  30.7368431   1.6697061  79.7665863
  29.8232517   2.5683191  80.5720825  71.9558029   8.1544352  25.9643593
  71.7594910   8.7330465  26.7011776  71.8852463   8.7166681  25.1928997
  62.7673111  41.2276649  16.3199463  63.1960373  41.9730949  15.8995161
  62.2953491  40.7914619  15.6105747  71.5339279   1.4817498   5.9456954
  72.4747543   1.3478074   5.8310618  71.1717834   1.4051261   5.0629654
  77.4320755  57.6140213  37.7365913  78.3345718  57.6567841  37.4205093
  76.9510956  58.2174568  37.1702385  39.0698357   2.8048408  27.5703125
  39.8853149   2.4394879  27.2271786  38.6131134   2.0549412  27.9514790
  72.4568939  50.0335922  70.7662735  71.6083374  50.4217644  70.5529709
  73.0525131  50.7801704  70.8302383  67.6899719  60.8423691  72.5730667
  68.4344406  61.3727531  72.2890091  68.0355606  60.3079300  73.2880325
  38.4763069  68.7982178  39.8790932  38.4622879  68.6271362  40.8207741
  39.3082161  68.4302521  39.5811691  40.5031204  38.0295334  19.4628754
  40.8769188  38.7084503  18.9011135  40.8754921  38.2023163  20.3275833
  86.2287140  47.8556633  52.1990509  86.3118515  48.4771042  52.9223328
  86.2565842  46.9954491  52.6179657  29.9444275  26.2588711  15.7177858
  30.7700081  26.2254486  15.2345352  29.5220699  27.0627346  15.4150524
  80.3450775  62.0736237  45.1036949  79.4103699  62.2424355  44.9851341
  80.3794785  61.2654343  45.6154366  14.1453800   8.0736914  67.9715881
  13.9468050   7.2774682  67.4788132  15.0632267   8.2568636  67.7709961
  75.0018616  35.6423645   4.3530335  74.5920486  36.5062943   4.3967409
  74.2710266  35.0365257   4.2302756  43.3897285  31.3672352  20.2593327
  43.6739883  30.9919071  19.4259319  44.2029152  31.6058693  20.7043190
  57.4535789   8.9834471  36.8167839  57.2032280   9.1126080  37.7315903
  58.3194122   9.3854446  36.7463646  14.1686678  40.4455757  84.9087601
  13.2129745  40.3925171  84.9169006  14.3582878  41.2874336  84.4945679
  76.6068115  54.4727287  66.2546997  76.2774124  53.9046059  65.5583038
  77.0484314  53.8776016  66.8605270  75.7742844  49.6579704  75.8379898
  76.3631210  49.5339661  75.0935898  74.9867401  49.1663742  75.6048965
  74.1834335  26.8981380  54.3916245  74.2237473  27.6851120  54.9350204
  73.2474213  26.7323952  54.2791939  21.1507435  45.5598450  52.4380035
  20.8540211  44.9909592  53.1483231  21.9260483  45.1211395  52.0877609
  82.1387939  44.2807503  15.4759703  82.8702545  44.1667404  16.0827579
  82.2017593  43.5329895  14.8817329  82.6443863  45.1826591  74.3270111
  83.1643677  44.9331169  75.0909348  83.1981583  45.8026772  73.8525085
  55.5705643  42.0204048  74.1837616  56.4489441  41.6878700  73.9991074
  55.7162895  42.8964233  74.5409470  62.7960472  62.8681412  59.0518646
  61.9582863  62.4349480  58.8883629  62.5573845  63.7339325  59.3830376
  62.9256935  51.8006744  53.4111366  62.0799065  52.2488480  53.4149094
  63.5599861  52.4843369  53.6267967  38.1749229  10.5934410  61.8476219
  37.6296425  10.7899408  62.6093903  39.0344963  10.9513149  62.0696373
  47.5046387   9.0189352  58.9765549  48.3454399   9.3515081  59.2906876
  47.3651237   8.2128563  59.4735489  67.8097305  49.8003426  32.4823456
  67.0594864  50.2455482  32.8762474  67.4599304  48.9613991  32.1822815
   7.1983185  62.8424110   8.0148726   6.4024391  62.4271355   7.6826792
   6.9275284  63.2589798   8.8330269  82.5517273  49.0596313  77.8442764
  83.0949478  48.6538010  78.5198822  82.0383224  48.3367844  77.4835281
  34.3871689  11.3400011  81.8255692  34.7282562  10.4910402  81.5442200
  33.6345558  11.1250658  82.3765717  31.3235817  58.7732430  40.0032120
  32.1539917  58.3458900  40.2130127  31.2634773  58.7245445  39.0491447
  11.9161282  50.8695068  37.6212883  11.9406338  51.7621803  37.2766571
  10.9910107  50.6258240  37.5895462  32.1754379  40.8162003  73.2687759
  31.4766312  40.5475655  72.6723480  32.2515602  40.0920753  73.8901291
  77.5382614  56.4008980  86.2699127  77.2468262  56.0875854  87.1261368
  76.7446136  56.7403221  85.8562164  19.2823029  23.6177006  75.2538681
  19.8549404  23.9049397  74.5426636  19.5067463  22.6964531  75.3848648
  37.2972565  21.2704582  77.8965302  37.5971680  20.9804249  78.7580185
  38.0588036  21.7038059  77.5111847  57.9726448   9.2612267  82.0620117
  57.3933449   9.8598061  81.5904770  57.9270210   9.5516529  82.9729462
  60.7319374  58.5555115  71.8610306  61.3605385  58.8742828  72.5086975
  60.4290009  59.3449936  71.4124985  75.1236038  66.2161636  46.8804131
  75.2722702  66.3925934  45.9514351  74.2836914  65.7577515  46.9057236
  61.7287064   2.8517523  11.4996862  62.0146790   2.2285151  10.8318329
  60.8403206   3.0930257  11.2374096  33.9631996  64.3664551  45.9668045
  33.2829437  64.7434235  45.4087906  33.8387718  64.7905655  46.8158493
  31.0646973  10.1523209  77.0439606  31.2023029   9.2711706  77.3916245
  30.6182365  10.0132484  76.2087555  27.9282131  48.4101639  83.3161697
  27.0492764  48.6347961  83.0108109  28.0477276  47.4979630  83.0518951
  66.8166428   4.1949320  71.7677917  66.4165344   3.4573507  72.2283554
  66.1629333   4.8922744  71.8188858  20.1300087   4.6164937  21.9083290
  19.6038837   3.8266332  22.0330086  20.8284569   4.3473368  21.3117104
  36.4901924  40.3409576  64.6040649  37.1144600  39.8692474  64.0526886
  37.0349236  40.8984795  65.1596375   4.2658896   1.1878356  52.6519432
   3.5064054   1.7701278  52.6706848   3.9795401   0.4373857  52.1313095
  49.2065392  54.9029655  73.7503967  50.0699425  55.2241859  73.4904251
  49.1142845  54.0671387  73.2931061  24.9264660  40.4738045  85.1078339
  25.5388489  40.9615593  85.6585770  24.7638493  39.6632156  85.5902557
  84.6190262  59.3862762  80.5839462  85.3175964  59.3252983  79.9324036
  83.8621979  59.7081909  80.0942383  28.2643623   4.8328857  18.7292480
  27.8673401   5.2452807  17.9620895  28.7914581   4.1185460  18.3713074
   6.0276632  59.6487045  88.7483139   6.6662660  60.2374687  89.1505280
   5.1794281  59.9716492  89.0523453  17.5331573  29.0352192  88.2018280
  18.0891838  28.7984829  88.9441376  17.2173710  28.1977673  87.8624420
   3.9666848  21.7788029  11.9249506   3.5550737  20.9197273  12.0187445
   4.3148770  21.7814941  11.0333300   0.5746406  25.7511845  22.1242771
   1.0213716  25.6453838  22.9642010   0.9528939  26.5470276  21.7503891
  31.1989155  49.8058472  71.2564011  30.7113190  50.0231781  70.4618912
  31.5665417  48.9393692  71.0823288  62.5795670  69.2201385  81.2857590
  61.9053040  68.9831848  80.6490021  62.0990791  69.6441269  81.9968109
  66.4129028  58.1988335  28.1568413  65.4787827  58.2137680  27.9484425
  66.8477554  58.1598206  27.3050079  79.5515900  17.7777538  53.2966957
  79.2143250  18.2843285  52.5578651  80.4973984  17.7453842  53.1530609
  66.0493393  37.1815834  27.6062660  65.2284851  36.7190247  27.7749939
  66.2122421  37.0475655  26.6725979  29.0747738  16.8981686  13.3140841
  28.2223053  16.4677906  13.3796930  29.6853676  16.1901474  13.1088676
  64.8281097  61.1471596  66.3881760  65.7791748  61.1260681  66.4943008
  64.6948776  61.3464775  65.4614868  83.8119431  53.5484390  26.9140739
  83.7706604  53.6396027  27.8660278  83.7789841  54.4469681  26.5857620
  84.7712326  40.0600204  75.8666229  83.8721695  39.8368492  76.1077042
  84.9280701  39.5782051  75.0545349  69.3081360   2.5971613  44.6085854
  68.6283035   2.3554494  43.9795876  68.8277740   2.8264329  45.4041481
  50.7751122  53.5995293  30.6166401  51.4290733  53.4992599  31.3083858
  51.0330238  54.3986893  30.1572304  34.9665565  58.5150032  84.6203613
  35.4644814  57.7823410  84.2577133  35.1544800  58.4912071  85.5586319
  82.3779678  15.7848120  41.3926392  83.2072144  15.4121990  41.6922150
  82.5895538  16.1979408  40.5555115  57.6956329   2.9153051  15.0173016
  57.2845688   2.5846000  14.2186193  57.0208092   3.4559999  15.4277840
  73.6182098  61.3767548  29.0164356  73.9094696  62.1738586  29.4591808
  74.4177017  61.0026970  28.6461220  78.0093536  22.5735302  20.4100475
  77.7784042  23.1378670  21.1478939  78.8522873  22.1918774  20.6550789
   8.0801268   5.6531005   4.0527840   8.8565607   5.1390142   3.8312047
   8.2315073   5.9394622   4.9535127  70.2828522   7.7339993  76.3084641
  70.8806686   6.9868169  76.2846832  70.0549698   7.8290658  77.2332687
  11.8959312  57.1699944   8.2993793  11.0927458  56.8409805   8.7029591
  12.3233767  56.3898430   7.9459867  36.9483299  61.0386391  18.9437504
  37.3182602  61.0273438  18.0609970  37.7046700  60.9379158  19.5217075
  18.2465935  52.2418175  80.1929550  18.2513733  53.1669960  79.9474869
  17.4591770  51.8882942  79.7791519  36.0546608  39.6942368  81.3026047
  35.1764297  39.6571388  80.9236984  36.3102379  38.7774925  81.4050446
  86.6279831  28.5080452  37.3838234  87.0900345  28.5799084  38.2190361
  85.7149734  28.3555889  37.6275368  79.9845200  64.3115158  23.0295792
  79.8340759  63.5431442  23.5802116  80.3627472  63.9586639  22.2241764
   2.2418771  56.1896515  36.7431221   1.6855178  56.9648628  36.6673241
   2.8067417  56.3727150  37.4938889  85.9101639  29.5139084  43.2893448
  86.3201904  28.6514626  43.2238197  85.1492767  29.4619389  42.7109108
  79.7321930  43.9538116  42.9489937  80.1073227  43.8751144  43.8260956
  80.0859375  44.7761536  42.6100998  81.3993225  39.3687325  86.8412247
  81.1345825  39.6017113  87.7310944  81.1025314  40.1026459  86.3031540
  69.0044403  31.8537674  55.0018349  68.3417816  31.3902588  55.5139542
  68.5307083  32.5823326  54.6005821   2.0551319  50.6923523   8.1882515
   1.2707888  51.1361389   7.8656187   2.7177525  51.3814812   8.2358723
  25.3597775  57.1063194  57.7060356  25.5235558  56.4171028  57.0623055
  25.5248909  56.6886749  58.5513420  86.8142471  57.8102608  36.1495094
  86.2114182  57.0671463  36.1247787  86.8817062  58.0943832  35.2379417
  75.2788010  62.7425766  36.0433426  74.5189056  62.3703918  35.5958290
  75.8792419  62.9816246  35.3372536  62.4388847   8.2589464  45.6919518
  62.4265099   9.0466900  45.1483192  63.1583405   8.4033699  46.3065720
  76.7466049  46.1177750  88.6297913  77.3191528  46.3510513  87.8990402
  76.6697693  45.1650085  88.5791779  50.2231750  19.2458076  24.4674072
  49.8973122  19.3365040  25.3628521  50.8570099  19.9564476  24.3700581
  75.1832352  52.5428047  35.3810387  76.0473251  52.3027153  35.0464668
  74.8861694  51.7666740  35.8560143   4.2261672  52.1167488  49.8285713
   4.5566702  51.2877045  49.4826126   5.0085878  52.5811310  50.1258926
   0.0028621  52.1241837  37.6313515   0.1510326  52.4197235  38.5296440
   0.3639886  52.8234444  37.0865097  36.5735741  45.0899773  43.9017410
  37.2880363  45.2694397  43.2905350  36.1492691  44.3069496  43.5509415
  83.7589188  21.8247242  86.3046799  83.7821808  21.0175152  85.7907639
  83.4779434  21.5458088  87.1761627  75.6666107  10.1335230  63.1232033
  76.4431686  10.3467474  63.6406250  75.5441971  10.8914289  62.5515175
  21.6203308   7.3493176  81.1866455  21.0299587   7.8187394  80.5972900
  21.1755867   6.5197082  81.3603745   1.5535820  14.8446646  75.8896255
   2.0195978  15.5469351  75.4358902   2.1080675  14.6360149  76.6414490
  84.6694183  44.8053970  62.3117905  85.6041718  44.9812355  62.4193077
  84.3032455  45.6351967  62.0058784  29.6825390  65.5093231  67.9948196
  30.2405319  65.3270340  68.7508926  29.5966339  64.6653290  67.5515060
  11.4026651  43.7887802  81.3908386  11.6602287  44.6915855  81.5774765
  12.1790695  43.2698822  81.6010208  64.1263733  14.0792665  13.1554852
  64.6322479  13.4235020  12.6755867  64.0029373  14.7922344  12.5288496
  24.9651470  58.9747162  43.5595551  24.0887165  58.9415970  43.9429703
  25.1207237  59.9052010  43.3976135  44.6751404  37.1653976  88.1298447
  44.8666191  37.9115906  88.6979675  43.9294891  37.4512939  87.6021118
  25.5656471  71.1302719  41.7850342  25.1432037  70.9281464  40.9502144
  25.6956730  72.0783691  41.7643051  48.9790726  41.8131218  11.5424280
  48.5668335  41.2330170  10.9022970  48.4920731  42.6340103  11.4702826
  65.0634918  10.2314453  23.8595848  65.9415741  10.5590553  24.0541935
  64.6134033  10.9755716  23.4596786  72.9875870  29.1744843  24.5991516
  72.2469482  28.5845375  24.4589748  72.9691772  29.3632717  25.5373707
  13.4489546  26.3038940  13.1153059  14.3729162  26.5042381  12.9656773
  13.0798283  27.1178627  13.4579945  48.4820480   9.5074053  82.9187088
  47.9085999   8.9007006  83.3870087  48.1091843   9.5583668  82.0385895
  38.2774467  69.7764664  28.1396923  37.5611153  69.4905472  28.7065735
  38.9277496  69.0770569  28.2042542  32.1769753  48.6711273  78.1774139
  31.8179760  49.3760757  77.6385269  32.6158524  49.1212082  78.8992538
  20.0568085  33.9404716   2.6687930  19.9246426  33.3462105   3.4074507
  20.9861641  33.8551598   2.4560685  84.8412018  34.6196289  58.1030197
  84.7282486  33.8276443  58.6286011  85.2976990  35.2289772  58.6831322
  85.2027893  47.0439529  40.5451965  84.6981049  47.4577103  39.8449593
  84.6026459  46.4031181  40.9264908  39.9981003  38.3325462   3.2462614
  40.0496445  37.7828598   4.0281954  40.8048553  38.1435623   2.7670295
  67.7041473  17.7591076  85.3179169  68.2353134  17.4666328  86.0585632
  68.3333969  17.8890743  84.6084213  62.2837791  28.2739086  79.7664795
  62.1337013  27.3607502  79.5218353  62.1938248  28.7594395  78.9464798
  22.1452980  18.6575832  80.1345596  22.7240524  18.5190163  80.8842773
  21.2703495  18.7255707  80.5167618  73.5657578  43.9254723  81.2003021
  74.0005569  43.2880707  80.6338196  73.4656372  43.4726639  82.0376663
  15.1966715   8.4701471  12.1614761  15.2521563   7.9128127  12.9377050
  14.4890881   8.0880013  11.6423206  15.8837824  64.4070892   7.2799225
  16.5175190  65.1196518   7.3627486  16.0099945  63.8812904   8.0697565
  55.8781090   7.1143851  46.2458878  55.4629021   6.2701435  46.0695610
  56.8005371   6.9024291  46.3888321   1.3611854  39.2073212  77.9612503
   2.3094110  39.2960663  77.8652115   1.2484044  38.6965942  78.7629166
  85.5488739  60.6776314  45.1813202  86.4797821  60.8729019  45.0740242
  85.2929764  61.1566086  45.9695663  38.1168823  39.9326286  68.6857834
  37.3022919  39.6533775  69.1037521  38.2117424  40.8516235  68.9361420
  76.7512512  65.7809296  40.5669174  76.9154816  65.9367523  39.6368790
  77.2450867  64.9858398  40.7674179  24.9394035  59.1529503  52.1309395
  24.8824387  59.9674072  51.6312904  24.8588066  59.4263954  53.0447006
  70.5697708  15.0770779  42.0425987  69.8073196  15.5315962  41.6843910
  70.2120132  14.2788439  42.4312668  72.1973648  41.0872688  24.7990036
  72.1002426  40.1409912  24.6924438  72.6864014  41.3665123  24.0249863
  30.0092831  57.9117470  64.3133698  29.4885044  57.2891769  64.8207474
  29.5921707  58.7584877  64.4723663  44.6567688  53.4032059  29.8181343
  44.5304680  53.1708488  30.7380753  45.4672012  52.9594498  29.5681057
  18.4262180  61.3174171  87.9838791  18.4677219  61.4233170  88.9342957
  17.9139805  62.0673485  87.6814728  18.4072037   9.0408764   4.9681830
  18.6754646   9.4988413   4.1716056  18.8383522   8.1881933   4.9109664
  85.6442108   3.2989109  35.5682182  85.5779495   2.4211991  35.1921005
  86.5848618   3.4710908  35.6102486  70.7550354  29.5572834  73.1239395
  71.0190353  30.3650017  73.5645370  70.8519287  28.8778229  73.7911606
  49.6981926  52.0481834  42.7012901  48.8108101  52.3387222  42.4906349
  50.0438232  52.7313156  43.2758369  72.3251724  65.6575241  51.0735321
  71.6943130  65.4096069  50.3976707  71.8244781  65.6333313  51.8889732
  82.6519241  25.7702637  43.2962837  82.3897171  24.9183960  42.9472809
  81.9214478  26.0352345  43.8552361  73.5684586  17.1949272  54.7909775
  73.6412201  16.8977146  55.6979523  74.3028717  17.7981339  54.6769524
  56.9686928  37.2805328  42.4011116  57.1451492  36.9701576  43.2892342
  57.8228912  37.5583305  42.0703392  85.4066162  62.1749115  10.9186068
  85.6781006  61.9545326  11.8096514  85.8302002  63.0144768  10.7398996
  53.1316910   1.0421886  60.5703659  53.1118164   0.6646482  59.6909904
  53.3436813   0.3049041  61.1428223  10.1898375  14.2247105  83.4414520
  10.9495821  14.1580038  82.8630295   9.4761934  14.5045366  82.8681717
  32.8733826  66.6374435  29.6339760  32.7030945  65.7685471  29.2703018
  33.7285156  66.8818359  29.2800636  83.2648392  38.2184296   0.1967035
  83.6718445  38.8288345   0.8115072  82.9101028  38.7764549  -0.4953951
  74.0328903  43.6760788  76.4152908  73.0823517  43.7885704  76.4227142
  74.2600784  43.6189880  75.4871902  51.7976685   0.8763108  80.9115143
  52.6515617   0.9971430  80.4961929  51.1676483   1.1713768  80.2540665
  45.2712173  67.0361557   1.5930808  44.3937836  66.8075180   1.2863785
  45.2374039  67.9826584   1.7317249  55.7424278   4.9756842  80.1447601
  54.9326019   5.1467566  79.6639862  56.1440735   5.8379126  80.2518845
  76.0290451  19.5071335   3.3589935  76.1000748  20.4499817   3.2099125
  76.2172165  19.3971748   4.2910514  51.4721336   6.9287848  67.5824356
  51.8694649   7.7909198  67.7052460  51.8951683   6.3744836  68.2381973
  69.8078079   4.1954803  27.7117577  69.3847809   5.0469828  27.8223343
  69.0996170   3.6089370  27.4459152  47.6661148  22.0720024  69.0446091
  48.3744583  21.7560158  69.6055298  48.1055603  22.6015930  68.3792877
  16.5895634  39.3168640  12.8625889  15.7343168  39.6263924  12.5643005
  16.9695091  40.0668983  13.3201056  41.5208054  58.9311523  72.4021912
  40.8449898  59.1238441  71.7522888  41.2293396  59.3854141  73.1927185
   2.1074555  58.7735863  26.8374157   2.6200004  58.9321861  27.6301174
   1.6243255  57.9680824  27.0217476  79.8433456   3.8049486  27.1869316
  79.3083344   4.5860295  27.0458317  80.6505661   4.1355429  27.5810566
  50.9393082  65.5155487  55.0888138  50.7709885  65.7934952  55.9891739
  50.1008301  65.6310501  54.6417732  73.6369553  39.4500008  11.4231958
  74.1293182  40.0357323  10.8481026  73.6304855  38.6112404  10.9620314
  73.2067795  20.7334728  19.5844955  72.5673752  20.8796997  20.2816429
  73.4289856  19.8050346  19.6541824  75.8906708  60.5440254  15.9153147
  76.2171478  59.7270927  15.5381403  76.6797791  61.0466919  16.1174583
  51.7656097  15.8799582  76.0767365  51.9260445  16.5560131  75.4183731
  52.4712639  15.2464752  75.9464188  56.3314476  18.6104298  81.6174545
  55.7412453  18.4768715  82.3591156  57.2027817  18.6597691  82.0106201
  -0.2076517  33.1988869  74.0779800   0.5550381  33.7693100  74.1736450
   0.1573525  32.3519058  73.8218002  43.9036255   2.0892584  61.2372017
  43.6131592   2.1141899  62.1489258  44.0698814   1.1626469  61.0640488
  39.5891914  17.7750854   5.4818664  39.5068550  16.9195004   5.0606461
  39.2105827  17.6509933   6.3522053  50.5510902  46.9760590  48.3570366
  50.3335266  46.1111374  48.7046127  50.4883347  46.8752251  47.4072342
  58.5532265  68.2426071  50.9980583  58.8544464  67.4968643  51.5170631
  57.6426811  68.3681717  51.2652168  39.7593193  20.1902027   4.5460052
  39.4267769  19.3196354   4.7645459  39.2488899  20.7861443   5.0942268
  70.1636200  12.9595718  12.6792259  70.7631607  12.7953205  11.9513502
  69.9856262  12.0923824  13.0432777  30.5015621  27.0253601  66.1464996
  31.1833897  27.3257732  65.5455933  29.6895370  27.1036110  65.6457748
  11.7895393  25.1630630  80.5392227  11.3792963  24.8760262  79.7234192
  11.9090061  26.1062794  80.4283066  57.6984749  58.1353645  77.1994400
  58.1975784  58.3096046  77.9974136  56.8923759  57.7207184  77.5068588
  70.8424377  43.0489388  32.1477394  70.7641296  42.8023720  31.2261639
  70.6679611  42.2394753  32.6279068  78.6407700  71.5330353  76.8067245
  79.0905075  70.7399597  76.5151825  78.1110916  71.7981491  76.0548019
  16.0412006  41.7800865  65.4686356  15.1487722  42.1051064  65.3496094
  16.1606407  41.7502975  66.4178925  17.3446732  48.2746964  50.1813278
  16.9340458  47.5365562  49.7310333  18.1088448  47.8953896  50.6153793
  11.4333649  67.7192001  65.1052170  10.7885695  67.2772293  65.6576080
  11.1988277  68.6457291  65.1577301  63.6167145  16.9651585  87.0207138
  64.4273071  17.2694473  87.4288483  63.8029289  16.9749203  86.0818558
  85.0807953  53.9645309  34.5147171  84.9270248  53.7466240  33.5954208
  84.6906586  53.2385063  35.0014534  60.7511063  13.1044598   7.3369613
  60.6283989  13.9919233   7.6739821  59.8635292  12.7575340   7.2470865
   2.4621513  70.7132187  45.5349693   2.7070885  70.4792557  46.4302368
   2.0990417  69.9073410  45.1676292  82.0903931  66.6437531  21.5756550
  81.2619934  66.4551010  21.1347504  82.7515259  66.5624237  20.8882523
  21.9337082  52.1336174  39.4034615  21.6000404  51.2400589  39.3231354
  22.8122826  52.0960999  39.0253983  35.7299042  15.1966438  17.9914417
  34.8958321  15.0942278  18.4497757  35.6883659  14.5640306  17.2742901
  84.0671997  11.0984688  82.4768982  84.2979965  11.7953997  83.0911102
  84.7795868  10.4640312  82.5558395  37.7282257  60.2319565  73.3240433
  37.2063065  61.0306358  73.4011307  38.4637566  60.3679161  73.9213257
  16.1236973  41.8308029  68.4894485  15.1701336  41.8074265  68.4094315
  16.2963371  41.5355949  69.3834763   6.2151914  42.8915482  11.1584644
   7.0341477  43.2575569  11.4925022   5.7992907  43.6186028  10.6951571
  53.4776878  10.9823732  48.1741295  53.3812904  11.8661728  47.8193932
  54.1906357  10.5964584  47.6652069  54.7586670  25.7727509  14.1536779
  55.6335678  25.3976307  14.0533495  54.3064346  25.5465336  13.3409414
  84.9078903  35.7866020  85.9473114  84.9682846  35.0817146  85.3025513
  84.2111053  36.3539352  85.6173859   3.2950580  34.8938370  64.7553940
   3.6328273  34.1884613  64.2034988   2.3538823  34.9043884  64.5812988
  28.8706894  39.4877548  11.1321554  28.9182224  40.2523842  11.7060184
  29.1624851  38.7588539  11.6796856  24.8298435  63.8446007   7.4106965
  25.2859859  63.0032082   7.4256153  24.5470753  63.9476700   6.5020432
  30.0231819  35.0150032  62.7485847  29.4009647  34.4111137  62.3431282
  29.4803276  35.5966682  63.2807579  72.4671555  49.4952774  46.4359055
  71.6328735  49.9383011  46.2812004  72.4437943  48.7321739  45.8585320
  28.9778595  50.8613052  45.1560020  28.8484058  49.9492073  45.4159088
  28.6614170  51.3702583  45.9023666  28.4962978  10.1806135   2.7060487
  29.3731022  10.1223431   3.0855896  28.2810993   9.2806883   2.4609849
  64.1891098  29.3682442  51.4744644  64.4040146  28.4846458  51.1756287
  63.8406029  29.2443619  52.3573151  69.8063202  54.7519341  75.0387344
  69.5680008  54.2330132  74.2705154  69.6088333  55.6545525  74.7887192
  51.8371811  41.0083580  47.0665054  51.7149048  40.4607620  46.2909927
  51.2844391  41.7737617  46.9088211  41.3252716  33.0419121  86.5718384
  40.4325943  32.7064705  86.6545258  41.3389130  33.8247833  87.1224365
  71.1754913  67.2010117  25.4904289  71.5321655  66.8351212  26.2998352
  71.7972412  67.8852615  25.2425156  14.6041889  16.1833267  87.6632004
  14.9002361  15.2935600  87.8553009  15.2215300  16.5044937  87.0059509
  64.6298141  16.5830612  50.2990074  64.3544540  15.8691206  49.7239418
  65.1553192  17.1534119  49.7379570  10.6247444  56.6369896  30.6924686
  11.3994207  56.7475967  31.2437172  10.4957905  55.6895638  30.6478977
  50.9759331  60.3660660  33.3864212  50.3098984  60.6553230  32.7627563
  51.7420845  60.9033623  33.1850243  23.5273914  27.1261959  73.8467865
  23.4081554  26.7048988  72.9955978  24.2212143  26.6200409  74.2694550
  29.6885796  58.3583450  26.4912758  29.4250164  57.4857254  26.1992054
  30.0980625  58.7547874  25.7222576  25.8380356  46.6469955  15.5619059
  25.1386623  47.2441902  15.2964535  25.4593639  45.7739182  15.4590578
  19.4750938  36.4389534  63.4060669  19.1934204  35.5267487  63.3369789
  18.7425709  36.9432793  63.0520897  73.2657166  20.7786083  34.8833046
  73.8183899  20.2074795  34.3498230  73.8669357  21.4376431  35.2303505
  26.7202530   1.4897979  81.3562469  27.5043564   1.2572126  81.8535538
  26.9701347   1.3613871  80.4412003   3.5233607  32.7128334  26.2345982
   2.5752850  32.6416245  26.3455658   3.8835967  32.4615326  27.0850754
  15.4348269  36.9192047  40.8924637  15.1303272  37.7510529  40.5297737
  14.6350784  36.4704742  41.1668243  77.2363815  62.2878342  58.7751770
  76.5089569  62.9097633  58.7582169  77.2719193  61.9365120  57.8854904
   1.8454734  60.7002182  32.6071663   2.2728906  59.9431496  33.0076637
   2.3190422  61.4551811  32.9564438  37.1411095  17.0947819  77.5526276
  36.5685349  16.4325142  77.9396591  37.5437889  16.6551723  76.8037491
  29.6259308  70.0076065  44.4987450  30.2781467  70.7041626  44.4235001
  28.7957726  70.4687576  44.6187897  17.3026714  46.4386559  12.5826836
  17.2186623  45.9815063  13.4194565  18.1453953  46.8890305  12.6393585
  16.4381924  51.9399796  34.7389526  17.0258045  51.2704353  34.3887329
  16.9841061  52.4472885  35.3396606  63.7007484  43.7520027  40.6152687
  62.9957542  43.6149979  39.9824600  64.2824783  43.0019417  40.4918671
  47.3073807  69.2718735  76.2710419  48.1227036  69.0976028  75.8008270
  47.5676880  69.8318024  77.0024414  11.2362566  40.2450294  47.7458382
  10.4235096  40.7106056  47.9430923  11.9118643  40.7321472  48.2175369
  48.3232193  24.3891354  82.8909988  48.1275024  25.2975464  82.6613998
  49.0218582  24.1348972  82.2880936  49.3400230  63.5532684  13.6126785
  48.6249504  63.4187775  14.2346249  50.1150780  63.2167015  14.0623903
  71.5949097  28.0346661  61.4867897  71.9738998  27.4087753  62.1039276
  71.6669235  27.6044502  60.6347580  64.9624939  18.2643013  84.5295181
  65.8614426  17.9635715  84.6625366  65.0542984  19.0934315  84.0601120
  85.0609589   2.6431484  51.5579033  85.5644379   3.0325341  50.8429756
  84.2709198   3.1805742  51.6149139  16.8182335  59.3643532   7.5240049
  15.9342413  59.5813370   7.8201571  16.9614525  58.4697342   7.8328409
  36.2713814  39.8330688  36.9678802  35.3545837  40.0452118  36.7926521
  36.2970848  38.8763428  36.9834900  77.4947815  43.6631050  84.7391357
  76.8949966  44.3002548  85.1271210  78.0855408  44.1881790  84.1992035
  54.0631866  38.9261169  70.8273849  53.8168640  39.8492317  70.8858185
  53.4870224  38.4845200  71.4512863  70.9814377  71.5950470  43.4111328
  70.1050415  71.2440414  43.2531662  71.1774826  71.3515625  44.3158493
   4.5627680  71.5438843  14.0643339   4.4957695  71.9032059  14.9489985
   4.1060405  70.7040100  14.1117220  58.7465248  35.6814117   3.6226375
  59.3396378  35.3970680   4.3180480  58.0855446  34.9907608   3.5743070
   3.8929284  10.1775942  70.3338623   3.3739142  10.7046452  70.9413757
   3.6950917  10.5421505  69.4711914  65.2107315   2.4074540  64.1600418
  64.5886688   2.7119212  64.8207779  65.2417603   1.4582655  64.2796631
   0.2411571  61.6908875  66.5124664  -0.4823655  61.8742294  65.9131927
   1.0218829  61.7126274  65.9590912  82.3430176  30.5945930  68.0697174
  82.8828278  30.6423149  68.8587494  82.9169693  30.9016666  67.3679199
  76.0319672  30.9269238  15.0722799  75.1011734  31.0041389  15.2817698
  76.4439163  31.6529827  15.5406446  23.1829453  58.1371117  66.6493530
  24.0424595  58.0980835  66.2298965  22.6720295  57.4557381  66.2124023
  66.3169327  67.5153503  80.5092468  65.9098206  67.7532196  79.6762314
  67.0180206  68.1566925  80.6249619  36.4379730  60.9819031  43.9554558
  36.6838875  61.8979836  43.8267860  35.5560417  61.0203667  44.3255196
  56.5168457  68.3373718   0.4209502  55.6319427  68.2058487   0.0805425
  56.7290077  69.2425461   0.1931810  42.6278191  38.7675934   6.4751005
  43.4227715  38.3563499   6.1357398  42.8581963  39.6917534   6.5704145
  86.3953705  56.4210663  41.1036873  85.9367523  55.6334267  40.8112488
  86.1761475  57.0831909  40.4481239  30.4969711   1.6172152  62.4214745
  30.3555202   2.3337212  61.8027306  31.0965672   1.0243766  61.9684181
  56.8268051  18.0995998  77.3396606  56.8288345  18.7169056  78.0712128
  57.5896225  17.5424404  77.4943008  23.1859894  24.3425541  83.3023529
  24.1282673  24.5043983  83.2559662  22.8265972  24.8006706  82.5426178
  57.5532913  16.7880421  50.4063873  57.4972305  16.2192631  49.6385460
  56.6482620  17.0478325  50.5786018  11.0684986  63.0213013  60.5876579
  10.1903028  63.1671181  60.2358894  10.9214602  62.7476387  61.4930382
  68.9552841  70.3982468  25.5401821  68.3708344  70.7038498  26.2339115
  69.5275497  71.1447906  25.3629513  59.9288750  65.3655090  73.0603943
  60.3745575  64.6202164  73.4630585  59.0003128  65.2122040  73.2350540
  37.3326950  14.4094925  82.9972687  37.7139969  13.6581697  82.5430069
  37.7892342  14.4379559  83.8380966  48.3833046   3.5796952  49.2471771
  48.0291252   4.3706236  48.8407021  49.0333595   3.9018266  49.8715897
  75.8030624  27.0750637  52.3720016  75.6452866  27.8688316  51.8608513
  75.0537949  27.0192013  52.9650497   5.1018682  29.0937252  25.8991356
   4.3108625  28.9796505  25.3723240   4.9005523  28.6629467  26.7298775
  18.9416142  59.4126396  44.9302559  19.0122871  58.8876534  45.7275200
  18.3726120  60.1427727  45.1739197  57.3788834  66.7144012  68.9341049
  57.1059761  66.3555756  69.7784958  56.8631058  67.5147629  68.8359985
  26.2282181  44.3694000  30.1440868  25.9382706  43.8642235  29.3845100
  27.1259785  44.0755310  30.2986660  72.4694061  34.3240433   8.2257900
  73.2630692  34.1204987   8.7206650  71.8916855  34.7451935   8.8622675
  85.9780045  50.0674362  85.0769730  85.1273193  49.8164864  85.4369583
  85.9958191  49.6710510  84.2058792  16.5148678  48.6622505  43.1789818
  16.9816437  47.8367348  43.3088837  15.6819944  48.4066391  42.7824745
  33.3791084  15.5811911  70.1426468  34.2097473  15.1225548  70.0164566
  33.0896492  15.3165808  71.0158157  75.1060257  12.8484974  35.4413567
  75.1644211  12.9540625  34.4917870  76.0164261  12.8106384  35.7345734
  85.6862106  53.2967606  63.9391327  86.2994690  53.9631233  63.6291199
  85.6424484  52.6607933  63.2250862   2.4867682  30.2036819  84.2315903
   3.0152218  30.6485729  83.5689926   2.6419833  29.2720737  84.0758743
  65.5781555  51.4095612   8.4950628  64.7150421  51.5915146   8.1233597
  65.7989349  50.5361328   8.1716318   4.7056317  61.4809608  47.5719032
   3.9071004  61.7256584  47.1042480   4.7203569  60.5245247  47.5365486
  40.4852524  50.3242188  39.3587189  41.4332733  50.2022705  39.3076096
  40.3573952  51.2640991  39.2302246  77.2721786  45.5107384  47.8738518
  77.5515900  46.0347748  48.6245499  76.8505707  46.1385880  47.2870979
  66.9098053  24.0659180  45.3386993  67.3735352  24.8277760  45.6862030
  66.4203949  23.7220249  46.0859947  28.7092018  70.1875763  77.8197174
  28.1229229  70.3268280  77.0759964  28.2149048  69.6203232  78.4114304
   3.9223309  48.4800835  54.7656441   3.6182168  49.0132103  54.0311241
   3.2192466  47.8465691  54.9090500  74.0997009  52.0782928  45.9870644
  74.0932083  51.1221313  46.0311852  73.7206573  52.2811737  45.1318474
  17.2556705  33.6248398  11.6309071  17.2799225  34.5788765  11.5570354
  16.3530254  33.3907509  11.4148865  53.0548973   3.1724637  63.4847221
  52.4710083   2.6609943  64.0448227  53.5986061   3.6694045  64.0960007
   1.0772461  64.1403275  34.9917145   1.1158803  64.9826813  34.5387535
   0.4516757  63.6237144  34.4837723  86.6008682  19.6789627  38.3409195
  86.3351517  19.3815460  39.2110748  86.1187515  19.1139641  37.7371178
  49.4118118  34.7604485  86.8461914  48.9920006  34.8649979  87.7000427
  49.0740013  35.4870834  86.3226318  40.2858925  12.3858051  63.3094025
  40.1122017  12.9320059  62.5427704  40.7412987  12.9665117  63.9190063
  45.3901176  25.5207176   3.0303934  45.5416336  25.0162106   2.2311773
  44.4793663  25.8075733   2.9635108  80.7003403  21.4004154  59.9812431
  81.4957123  21.4344997  60.5127068  80.0019379  21.2094307  60.6073303
  74.4744873  68.2936325  79.3730316  73.7144012  67.7145462  79.4292831
  74.8171844  68.1539764  78.4902573  31.8201275  57.9329033  82.9913635
  31.8481617  58.7435760  83.4995575  30.9413624  57.5852013  83.1433716
  74.8646774  26.8774815  62.2750702  74.5614166  26.0024300  62.5170403
  74.3836365  27.4668312  62.8560181  65.7398911   6.1249208  51.7862434
  65.3717194   7.0044408  51.8706551  65.3193970   5.6213427  52.4832611
  63.3246155  64.6214905  47.7332764  62.9316025  64.4404373  46.8794670
  62.7711830  65.3047028  48.1116562  30.3666115  33.6463356  64.9392776
  30.1202164  32.7373505  64.7681961  30.1440907  34.1107368  64.1324005
  60.6625290  53.6191521  63.7996521  60.2819977  52.7427864  63.7411919
  60.2980080  54.0890656  63.0496292  44.2396889  34.4726562  22.2108459
  43.6733932  34.7099838  21.4765320  44.4585991  33.5535812  22.0571938
  38.8143768  20.3679352  65.5326080  39.3654251  20.3852482  64.7501297
  39.0273247  21.1793842  65.9935150  25.0573101  52.1606102  11.8247147
  25.3591022  52.9194717  12.3240004  25.8366032  51.6136665  11.7257900
  22.1985054   3.1233165  39.5480156  22.7572460   3.4671252  40.2450333
  21.3795490   3.6111550  39.6349564  45.8239555  62.3912086  70.2529678
  45.4229431  62.8711128  70.9776077  46.5545120  61.9196548  70.6531677
  66.2653046   4.6020379  74.9901810  66.5632629   5.4799643  75.2282944
  65.5975418   4.3905897  75.6425781  57.2576485  29.3651638   6.4722991
  56.7018967  28.9217987   5.8313627  58.1113930  28.9417076   6.3826456
  21.3235378  63.4590950  34.9081421  21.3639698  62.6969223  35.4858055
  20.7909622  64.0943604  35.3867149  56.1796227  34.1342926  20.9659863
  55.6414299  34.8410263  21.3225155  56.2482758  34.3332443  20.0322113
  18.7145538  37.2036362  12.4821901  17.9408474  37.5887909  12.8936110
  18.4151535  36.9346466  11.6137218  72.8315125   1.1643072  18.8102264
  71.9112396   0.9120325  18.8856087  73.0492706   1.0043232  17.8919582
  15.3118334  24.0163059  71.9446487  15.5051041  23.8895302  72.8735199
  15.9970808  24.6091881  71.6361694  80.0239792   8.0966368  67.2108459
  79.5884323   8.0693254  66.3589096  79.5535202   8.7725086  67.6987991
  78.0361633  31.0405674  50.0278854  77.3863678  31.1763840  49.3382874
  77.5185242  30.9100647  50.8223991  63.9216728  22.0879650  82.9388351
  64.3419037  21.9475517  83.7873154  63.5918465  21.2247715  82.6891403
  19.8687935  44.6103897  67.1691437  18.9739780  44.4670982  67.4773712
  19.8196163  45.4183006  66.6581650  77.7608719  44.9402542  59.3463173
  78.4387207  45.0756874  60.0084381  77.0469971  45.5197601  59.6123695
  84.4925461  51.2733955  68.6360626  83.6130295  50.9155540  68.5150681
  84.9465332  50.6187935  69.1667480  17.2790165  51.3050270  50.1955223
  18.1631432  51.5108833  50.4991264  17.1647911  50.3773727  50.4020233
  42.4136200  26.9027176  64.7930679  42.4681206  26.6179962  65.7053146
  43.2501373  27.3375130  64.6274796  27.5912228  59.1872406  82.5063629
  27.4105816  58.9100418  81.6081696  28.0837460  60.0024414  82.4109726
  61.2952271  59.4876633  17.1611137  60.8213501  58.8764114  16.5971642
  61.9904861  58.9605255  17.5547791  72.6211700   1.0681425  24.2467613
  72.6876450   1.9360055  23.8484821  73.2269974   0.5257980  23.7417240
  29.2486515  26.4183807  71.9881516  28.9176579  25.8125801  71.3250656
  29.3778687  27.2416573  71.5172424  46.1265640  44.7736320  75.7031937
  45.4225845  44.1459198  75.8663406  45.9053001  45.1677132  74.8594131
  70.5436096  14.3065290   1.9915940  71.1630402  14.0819101   1.2972680
  70.8553314  13.8226719   2.7564106  79.2318192  51.6111870  40.1801491
  80.0276413  51.9731102  40.5698967  79.5351868  50.8605499  39.6695175
  25.3851871  67.2511749  27.5389576  25.5984592  67.0096130  26.6376266
  24.7081051  67.9223251  27.4532337  30.5352020  69.4424210  62.1773758
  30.6795349  69.8888016  63.0117302  29.5830116  69.4073334  62.0860901
  12.5598650   1.0330424  14.4474087  12.2766562   1.6338397  15.1366596
  13.5159378   1.0554515  14.4880972  67.2225113  38.8285255  76.2483673
  66.8280334  39.5984230  75.8386383  67.8381348  39.1865501  76.8879395
  65.3858490  29.2838554  19.9626522  65.5831757  30.1986961  20.1635532
  65.9025879  28.7831669  20.5939407  18.1147861  52.7209167  36.8862000
  17.6835690  52.6476059  37.7376137  19.0427971  52.5816307  37.0749474
  84.5185318  29.4641666  33.8875237  84.1171875  29.2791424  34.7365952
  84.7285614  28.6019020  33.5288887  86.6025314  40.4380264   1.2057526
  86.6277618  39.9453773   0.3854533  87.1717072  41.1917152   1.0501040
  65.4023819  53.2496147  58.7522583  66.2350388  53.6411705  59.0160637
  65.6486740  52.4329453  58.3179550  62.8049889  70.2484741  11.0056591
  62.7652054  70.7174683  11.8391447  63.6586533  69.8155746  11.0149307
  57.3289642  15.5734930  56.7256813  57.0244751  15.7960176  57.6054573
  57.7713890  14.7312651  56.8312416  39.1288719   5.4360361   0.8438489
  38.4660149   4.7734489   1.0383530  39.5433655   5.6151447   1.6878563
   1.4543444  26.7591591  79.5703354   1.3582556  27.2652378  80.3771057
   2.3876772  26.8115330  79.3644714  30.8777847  49.4249878  43.1729355
  30.2933578  48.7445679  43.5071602  30.6196766  50.2160301  43.6460800
  60.1491318  20.1732616  42.0030708  59.3572235  19.6389637  42.0633469
  59.9172668  20.8777447  41.3979454  64.7554398  55.2551613  56.2854843
  63.8776932  55.4620476  56.6064148  65.3187943  55.3447685  57.0541420
  24.4558964  53.5085831  76.6151962  24.5664921  54.0460587  77.3994904
  24.1471577  54.1205368  75.9470444  86.6262360  39.4145851  88.0410843
  85.8436737  39.7825127  87.6306458  86.4481201  38.4758072  88.0977097
  83.8996658  44.1496391  40.0218697  83.7737656  44.0544815  39.0777702
  84.8498154  44.1712494  40.1358223  46.3388519  66.5593567  73.2259750
  46.1572037  67.4035873  73.6389160  47.2777748  66.5802994  73.0409927
  78.2937622  13.3159876  61.7552948  78.9731293  13.9228573  61.4613495
  77.9927826  13.6786804  62.5884209  73.7732925  37.5525284  22.0735092
  74.4795074  37.0584068  21.6571712  73.9668045  37.5042648  23.0097008
  65.9428711  43.4299088  54.6172218  66.0226212  42.4760780  54.6259766
  64.9994049  43.5914230  54.6211357  42.1543236  70.5069275  82.7802048
  41.9673424  70.1701050  81.9039536  42.5676384  71.3565979  82.6270447
  79.0225983  44.9389839  22.6947517  79.3348618  44.1356888  23.1112099
  78.4504776  45.3409081  23.3484840  31.4405174  16.8505707  15.6443901
  31.2584877  17.4772930  14.9441652  32.2198792  16.3803005  15.3482914
  26.7005501  36.4111404  83.3752289  27.0004997  36.1594734  82.5017700
  27.4566498  36.8428154  83.7729721  26.0286236  64.1406784  43.7869530
  26.9719505  64.2509842  43.9061203  25.7109394  65.0164795  43.5672035
  70.5977249   5.8398004  79.6300659  70.8237457   4.9888811  79.2544556
  70.6980972   5.7190876  80.5743027  44.3995895  35.0581856  41.8761330
  45.0010605  35.7214699  42.2145424  43.5826569  35.5323753  41.7212257
  36.2335205  59.1110153  32.4833412  36.9952431  59.5458603  32.8666420
  35.7616310  58.7492180  33.2334442  72.6402435  25.0672569   8.7410116
  71.8902283  24.7271900   9.2289305  73.2810822  24.3565063   8.7608385
  47.0021591  56.6358643  72.1693420  46.7612686  55.9616203  71.5340500
  47.9570274  56.6810799  72.1201553  64.7086945  33.9473839  41.1071548
  64.2923355  33.2361031  40.6203766  65.5419998  34.0892715  40.6580429
  66.5050507  12.7687340  78.8370819  67.0081100  13.4525795  78.3949051
  67.1646118  12.2340565  79.2790375  56.9970322  55.2714157  70.6726074
  56.4313240  55.8543129  71.1790009  57.5490723  55.8605652  70.1584167
  51.6401558  66.8809280  64.7378922  50.9106941  67.3724747  64.3604126
  52.3651886  67.0231476  64.1293411  16.8469486  38.6184540  68.1985550
  16.7038116  38.2948532  67.3091583  17.4902878  38.0160370  68.5719757
  79.8627853   9.1674900   2.6160576  80.4556046   9.8423967   2.2854490
  78.9908829   9.4682188   2.3599925  19.5289803  58.1376190  47.6133919
  19.6607494  58.9989929  48.0095024  18.8854561  57.7100563  48.1784554
  67.5310974  48.6322861  66.2304916  67.3435822  48.8308029  67.1479111
  67.2566223  47.7217789  66.1215210  49.2850151  41.0110283  58.3544731
  49.1428299  41.8364525  58.8178139  49.6985207  40.4407196  59.0025444
  81.4166412  33.5615730  33.7172470  81.0081787  33.4561615  32.8580132
  81.7428207  32.6886787  33.9360924   6.9439530   8.6443892  81.6711502
   6.4408002   7.8729610  81.4104462   6.7957468   9.2760725  80.9674149
  25.3955975  46.8140411  84.7277069  26.0074997  46.6181755  85.4372482
  24.8991470  47.5699310  85.0413971  55.3407326  26.3774643   8.3721485
  55.6566620  26.5741234   7.4902487  56.0427475  26.6762085   8.9502144
  57.1113281  24.3767929  13.4959307  57.5263062  25.1831894  13.1897402
  57.3326035  23.7257729  12.8300161  62.1137772   2.1738744  84.2928009
  62.4353600   1.4087321  83.8159637  62.9061623   2.6334894  84.5704803
  76.5827332  54.6911049  80.1331253  76.3396759  53.7845993  79.9449692
  77.3700256  54.8415184  79.6098862  19.7524242  34.2626152  24.2869167
  20.1740208  34.8171425  23.6304226  18.8461914  34.1850662  23.9886532
  79.6272888  14.3807049  50.3495445  79.4946289  14.2047462  49.4180527
  80.0515594  13.5907364  50.6844673  73.6538696  34.1609154  45.7874222
  72.8240738  33.7565842  46.0407906  74.2505722  33.9540596  46.5067139
  42.2599487  25.3985729  74.2813492  42.6477776  25.2013779  73.4287415
  43.0055504  25.6263332  74.8367233  25.0088997  18.6345711  18.5682297
  24.9645042  18.2807236  19.4565163  25.9378033  18.5947094  18.3406811
  73.3170319  30.2575493  30.7549057  72.7817841  30.2746162  29.9615269
  73.2536011  29.3549728  31.0672531  35.1633835  67.1075211  28.0532131
  35.7338676  66.7579041  27.3687057  35.7606430  67.3576202  28.7581692
  77.8674545  49.7766495  73.8711243  78.5703659  49.5657387  73.2565689
  78.2762451  49.7113037  74.7341690  62.2328720  57.9509087  41.5347862
  61.2770691  57.9093132  41.5040321  62.4630318  58.6370430  40.9083099
  41.1651955  48.9303322  26.4144554  41.6068382  49.7628212  26.5822277
  41.4096260  48.3759270  27.1554794  55.5063629  10.1499882  27.5304489
  54.8581085  10.6316319  28.0442734  56.3397293  10.3326073  27.9644794
  44.9137497  28.3961182  86.6442184  45.3935699  29.0861073  86.1860580
  44.0067902  28.7019501  86.6553574  33.8105164  60.0496979  54.4852829
  34.1800346  59.1844978  54.6616859  34.4323807  60.6608124  54.8803177
  60.9606247  15.2038794  81.9089279  61.0907173  14.9128094  81.0063858
  60.8183823  16.1477928  81.8380280  83.9960175  61.0322876  74.4420547
  83.2579498  60.7534790  74.9840393  84.7062149  60.4360695  74.6794815
  60.0253677  65.2664871  40.7368355  60.0652771  65.0631943  39.8023262
  60.2402687  66.1978073  40.7887421  75.8324966  22.1580086  70.1519852
  75.0378571  22.6837692  70.2433853  76.3880615  22.6646252  69.5596008
  33.0919533  18.2581139  18.1323643  32.7869301  17.8185272  17.3386669
  34.0414200  18.3147602  18.0249557   3.2872107  32.5471268   5.9192824
   2.6058683  32.5138474   5.2477937   2.8067794  32.5834770   6.7463837
  71.3885117  68.6396179  60.3632469  71.7139893  69.4582291  59.9888496
  70.4992523  68.8450775  60.6517601  38.9279518  16.6586742   7.9524012
  39.2891998  17.5319576   8.1044130  39.0530281  16.1998100   8.7830820
  57.2497597  17.9226589  11.0671806  57.0615311  18.0859051  11.9913836
  56.6653938  17.2035503  10.8271198  47.9973297  43.3654404  24.8762474
  48.0385437  43.5967102  23.9483204  48.4215469  44.0971031  25.3245125
  22.4806805  43.6703758  13.0906801  22.2165051  44.3494034  12.4699011
  23.3436241  43.3898659  12.7859316  10.7308283  15.4686661  13.9343405
  11.3650274  15.0978594  14.5479574  10.0792856  15.8945160  14.4914551
  81.3485336  41.6824913  47.8107834  80.7332916  42.1036835  48.4110413
  81.2770691  40.7490997  48.0105476  49.2967110  34.8297958  32.8758812
  49.8192406  34.9577637  33.6675987  48.9074898  33.9619446  32.9834595
  50.3479080  22.9523544  59.9704018  49.4996223  23.0433979  60.4043961
  50.1975060  23.2725906  59.0809860  30.3782558  44.6395416  80.0653305
  29.4515247  44.4204407  80.1622620  30.5173359  44.6790314  79.1191177
  15.1326933  44.2209320  86.6906128  14.2426262  43.8797455  86.6034241
  15.3468361  44.0979080  87.6154099  80.7482605  16.9728088  23.4749088
  80.0209274  17.1261024  24.0780048  80.4839783  17.4093590  22.6650867
  74.9374847  65.9713669  35.6800156  74.6703796  65.9383621  36.5986023
  74.5729523  66.7942047  35.3540039  16.9885006  40.2283783  70.6625290
  17.3200760  39.7125702  69.9275284  17.6247654  40.0838623  71.3628998
  70.8159714   7.4121194  54.3702736  71.0765076   6.4993858  54.2467041
  70.8871078   7.5558491  55.3139458  67.5866547   5.0577273  31.2995834
  67.5107040   5.6442642  32.0522041  66.8773651   5.3250518  30.7150536
  45.6518250  32.2333870  74.3262405  44.7912331  31.8251362  74.2316666
  45.9137840  32.4500389  73.4314346  71.8183289  22.1285553  24.8241310
  70.8740387  21.9968185  24.9089050  72.1998825  21.5693035  25.5008030
  26.9580441  51.0874329  77.1222687  27.2216263  51.7019272  76.4373169
  27.6973553  50.4845085  77.2005768  68.3971710  12.9946394  24.8643436
  68.2612686  12.1074047  25.1968746  68.4417419  12.8899984  23.9139252
  61.4176178  14.2399025  86.4002762  62.1198540  14.3142748  85.7540817
  61.8645630  14.0065041  87.2139130  30.2527599  64.3782959  80.4042892
  30.6296959  64.0042496  79.6079025  29.8852158  65.2166519  80.1244507
  13.2366085  42.7965050  72.2146225  13.9578342  43.4077759  72.3643417
  13.6523132  42.0255013  71.8286514   0.6297440  42.3691063  56.7438965
   0.5062100  42.2080345  57.6793251   1.4291930  41.8916626  56.5221748
  17.3448238  37.3693619  84.5738449  17.1012402  36.5217171  84.2018280
  17.5347404  37.9189529  83.8134995  43.3031082  49.9127731  38.8172646
  43.6739578  49.4319305  38.0773354  43.6711311  50.7929726  38.7395592
  62.1251068  11.9068623  88.6759262  61.2653351  11.5016909  88.7893295
  62.6038132  11.2991304  88.1122513  50.4066849  63.5141106  45.9616699
  50.4320793  63.6928482  45.0216484  50.2234840  62.5765686  46.0223427
  61.3660469  46.9502335  60.6786499  61.1914024  47.8517609  60.4085083
  62.1154327  46.6818085  60.1470451  22.1977005  51.3566933  86.5801239
  21.4509792  51.6729813  86.0716019  22.2957840  51.9967766  87.2850418
  12.3043385  41.6938972  62.9141617  11.9952793  41.1295700  62.2054672
  11.5110741  42.1083221  63.2535973   1.3495314  67.6520615  40.1446762
   1.7602352  68.1758347  40.8325844   0.4109887  67.8030777  40.2567596
  78.6184311  56.6241226  55.6664238  79.1003189  57.0757141  56.3593063
  78.3427963  55.7987480  56.0651855  69.1727066  57.3453484  70.2990570
  69.5198898  58.2287292  70.1752167  68.2556381  57.4797592  70.5381088
  39.0900955  23.8685589  63.9859505  38.9456635  23.9910164  64.9242325
  39.7636566  24.5105648  63.7615013  33.9010124  44.0557709  60.5503769
  33.6306076  43.3416328  61.1275368  34.2576332  44.7191772  61.1410904
  25.6007481  30.3780041  13.0909586  25.9258556  30.0767403  13.9393559
  25.6853714  29.6160965  12.5177507  12.9527092  41.1415024  35.6600914
  13.4065313  41.5875626  36.3751488  13.6122437  41.0610962  34.9710503
   1.8807024  43.8848228  30.4629898   1.3707339  43.1313896  30.1654873
   1.4998707  44.1119156  31.3112984  46.3957100   8.5656052  66.5823593
  45.5481758   8.2066879  66.3194962  46.2170372   9.4863777  66.7733688
  78.1659393  45.6722221  70.9297867  77.7708817  46.5246773  70.7468109
  78.7121887  45.8220596  71.7014084   9.2269449  37.6382484  39.2385406
   8.7037621  37.1017456  39.8340912   9.1308279  37.2132378  38.3862724
  70.3767319  59.9598770  20.8363876  70.1143036  59.9022598  21.7551060
  69.5595627  60.1168022  20.3632641  73.7266769  63.2479782  48.9311523
  74.4062119  63.5796242  48.3442383  72.9537735  63.1547737  48.3742294
  84.4084702  53.8826141  60.1729698  83.4950562  53.5978470  60.2014389
  84.4725494  54.4020386  59.3715172  66.2021332  64.2026596   8.8013754
  65.6651459  63.4919548   9.1517744  65.8413544  64.9944839   9.2002249
  73.6079102   7.7999759  82.0625839  74.2742615   7.4802408  82.6708374
  72.8068924   7.3461914  82.3246536  43.2767372  56.5448303  19.9015198
  43.1114998  55.7370644  20.3877754  42.8914757  56.3884468  19.0393429
  85.2582474  44.8336563   7.8329387  84.9649963  44.1019554   8.3759384
  85.1184387  45.6077538   8.3783331   6.0031834  29.6027470   1.6837101
   6.5428753  29.2899036   0.9576983   5.9369988  28.8519859   2.2738008
   2.6466091  63.8997192  31.5152550   3.2162988  64.6668396  31.4586029
   2.9819663  63.4071350  32.2643394  76.6851959  21.6489964  18.2936039
  77.1945114  21.7997665  19.0899048  76.9157562  20.7591419  18.0267105
  42.4381714  70.1870346  30.2408466  42.4430237  70.2708817  31.1943550
  42.1692734  69.2823410  30.0813293   3.5279858  23.7203903  81.8819275
   2.7700095  23.3535995  82.3370819   3.2470114  24.5958824  81.6158371
  13.1840925  66.2341995  41.8544273  13.7171783  65.9367981  41.1171341
  12.5167341  65.5556488  41.9565620  38.3845444  61.0752449  24.8197918
  37.9758911  60.9923630  25.6813984  38.8908386  61.8859177  24.8718204
   4.3686695  61.8949585   8.1443014   4.3223672  61.6232796   9.0609674
   3.9877985  61.1636086   7.6582017  30.2836170  44.9744186  85.0574036
  29.6142921  44.2916756  85.1032486  30.1431389  45.3908272  84.2070541
  77.0567169  53.5489502  40.1157379  77.7405167  52.8948402  39.9715500
  77.2568588  53.9191551  40.9754601  32.6363182   2.8436928  83.2948380
  31.6876507   2.9703596  83.3095245  32.7527733   1.8968354  83.3731461
  19.1757412  67.4109573   3.7731225  19.7346077  66.6342545   3.7980971
  18.4108353  67.1394348   3.2657509  14.7380829  43.2797279  49.3234787
  15.5812626  43.1741905  49.7640915  14.1543760  42.6693344  49.7739639
  16.0880280   8.5269527  73.2098083  17.0028744   8.8024015  73.2682419
  15.6254635   9.2997236  72.8856277  17.4731464   4.9145279   2.1465015
  16.6999092   4.9790368   2.7070134  17.5315781   3.9851317   1.9250506
  45.4468040  66.2407455  47.3413544  46.0207253  66.3767014  46.5874557
  45.8448906  66.7576981  48.0417252  82.1544189  21.3910866  57.0571060
  81.6551437  20.7012405  56.6199875  81.7017899  21.5231743  57.8901215
  77.4443130  36.6754379  22.2949066  78.2649231  37.1532593  22.4153652
  76.8305359  37.0983353  22.8954678  20.2542019  67.8595123  86.0372925
  21.0804462  68.3060074  85.8523865  20.3095589  67.0400391  85.5457306
  15.2777081  52.0776520  85.8509827  16.0807991  51.7323418  86.2408981
  15.3110962  51.7892838  84.9388657  84.9237976  57.8622894  77.4618454
  85.6372528  58.4989510  77.5051193  85.0994568  57.3593903  76.6665649
  52.7488441  42.7981262  13.4627247  51.9704475  42.2826920  13.6740427
  53.4688606  42.1681519  13.4934216  41.2372437  42.1880798  11.2935886
  41.0525780  42.0855026  12.2271881  40.7202415  42.9490852  11.0293732
  64.5876617   8.5425797  32.2961235  64.3365402   9.3776693  32.6908302
  65.3699417   8.7456913  31.7832680  40.0022354   6.8817105  46.2583008
  40.3407516   6.3455658  45.5412331  40.6166534   7.6129742  46.3213234
  16.6499271  56.8136063  39.3820686  16.1458302  57.6175804  39.5075302
  16.2566204  56.4019127  38.6126213  83.3709564  35.1113930   6.9843173
  83.0234909  36.0000381   7.0605159  84.2073898  35.2192726   6.5315757
  42.3599205  39.7625046  46.2685966  41.4974251  39.4791641  45.9651985
  42.4582863  39.3522110  47.1277885  37.4375153  55.1578941  37.5605812
  37.3830948  54.2054062  37.4828949  37.3655930  55.4760933  36.6606865
  10.0017061  44.7186699   8.6469612  10.3073511  45.2945290   7.9461045
  10.8007040  44.3306007   9.0036612  18.7862167  53.1906967  69.4306870
  19.4582882  53.2530937  70.1094055  18.1185474  52.6170998  69.8067703
  76.2696609  69.5735626  64.5173492  76.0922012  70.4937820  64.3225937
  76.0727081  69.1137314  63.7012672  21.7344341  52.3766403  24.9592361
  22.1514626  53.2323799  24.8591003  22.2767754  51.7835846  24.4392529
  32.5429230  64.0645905   9.1678858  33.2821732  64.2590027   8.5917425
  32.7515259  64.5159836   9.9857855  14.3861599  14.7354393   6.0489736
  14.6737490  14.6433897   5.1406503  13.9756861  15.5994577   6.0838513
  24.7375927  23.4663143  11.1196232  25.6943932  23.4502296  11.0971012
  24.5249767  24.0052242  11.8815947  84.5164108  63.1007385  67.6242523
  85.0390625  63.2613564  66.8385849  85.0518951  62.5074005  68.1509781
  26.2936325  69.4353333  81.8596802  26.2002640  70.2779999  82.3040161
  25.5048695  68.9491730  82.0999603  74.8881073  49.2147636  25.8004856
  74.3439713  49.3875504  26.5687923  75.4382706  48.4750366  26.0580864
  70.2960434   0.7394444  56.5112915  71.1911774   1.0449973  56.3642769
  69.9552765   1.3163319  57.1948891  39.3387260   5.4814382  78.0867310
  39.4839859   5.0793395  78.9431458  40.2170639   5.6869283  77.7665329
  79.8335342  63.4521484  69.3686523  80.4438400  64.1787796  69.2430725
  80.1093521  62.7946129  68.7300568  49.7787170  26.3592014  73.5450363
  49.2409630  25.6440582  73.8850708  49.1473579  27.0256081  73.2738876
  30.0124207  49.6908989  65.0264664  29.9814396  48.7376556  65.1077194
  30.7207603  49.8553276  64.4040146  42.2829971  44.7452278  69.0604248
  41.7844238  43.9307594  69.1259918  43.1613541  44.5133018  69.3619843
  72.4445572  22.2375469  57.0544167  72.7102890  23.1459389  56.9114418
  71.5112381  22.2905769  57.2601814  85.1343613  40.8049126  10.9164324
  84.9676819  40.1136017  11.5571642  84.8021164  41.6010513  11.3311729
  43.5070763  17.4172382  89.1028976  43.9012146  16.5464840  89.1546097
  42.7433968  17.3012867  88.5375824  70.9622955  13.9131680  30.6925621
  70.6909561  13.8680229  31.6093864  71.8894119  13.6753874  30.7051849
  72.3303757  34.4710846  88.6129684  72.6450729  34.0615845  87.8070450
  73.0971680  34.4934921  89.1854630  52.1921959  49.7715950   9.3348970
  51.5237465  49.1043930   9.1791811  52.7383766  49.4056435  10.0305958
  53.1500092  62.0115852  49.8264389  52.3780479  62.4612923  49.4828339
  53.8629951  62.2845078  49.2490349  18.5306644  67.0370331  48.3462524
  18.7034111  66.2000351  47.9151764  19.0917454  67.0273590  49.1217041
  85.0730209  26.1455421  25.5574303  84.7265625  26.4088116  24.7048531
  86.0210724  26.2464199  25.4722290  14.3703623  64.8240051   0.3639225
  13.6933937  65.4672928   0.5739956  14.9414434  64.8177490   1.1320754
  81.3161011  15.2312241  12.9041224  81.6781158  14.8379068  13.6981506
  80.4414215  15.5244627  13.1594296  82.8800735  10.6156874  36.9116707
  83.3640518  10.0264711  36.3330307  83.5418930  11.2222977  37.2437210
  26.4327888  42.2623749  38.1677780  25.7618618  42.8933144  38.4285545
  27.1634426  42.4299545  38.7630005   9.8447638  57.0084457  46.8577881
  10.5132713  57.6844673  46.7467613   9.2664089  57.3529968  47.5382462
  70.3047409  24.3452644   1.8276738  71.1191711  24.6562881   2.2228920
  70.2249603  23.4389839   2.1252010  75.8829422  28.2792854  45.3941803
  75.8179474  28.4928150  46.3249931  76.2797852  29.0548649  44.9976654
  29.1079330  48.0505524  38.5386047  29.7538471  48.5268707  39.0602837
  28.2752590  48.2128181  38.9819527   3.2462823  61.4040489  53.9310226
   2.3036027  61.3130836  53.7920532   3.4700582  60.6912231  54.5293846
  52.5888100  16.0893345  11.7163620  53.1597443  16.3115902  12.4518013
  53.1260490  16.2468491  10.9399624  41.1782150  55.2909889  36.4235191
  41.4981232  54.6026726  37.0067101  40.4570732  55.6966629  36.9047813
  58.8311043  19.4447517   5.0650334  58.4621658  18.6407452   4.6993980
  58.1003227  20.0629501   5.0700555  79.7895508   9.7065487  13.6143227
  80.2024002  10.2873688  14.2534103  80.4566803   9.0470476  13.4239941
   5.1180654  40.3129196  84.2883530   4.4838262  39.6171188  84.4610748
   5.2183433  40.3147011  83.3364258  86.6710281  60.5060501  60.9885025
  85.7930069  60.4440918  61.3646240  86.6370926  59.9522400  60.2085190
   8.7805510  24.5465660  22.8584232   8.8705168  25.1256294  22.1015720
   9.4911261  23.9126968  22.7608318  45.2703285   4.0752535  41.3121185
  46.0436974   3.9290285  41.8568649  45.6145935   4.4585361  40.5053902
  18.9468117   7.4768081   9.0310469  18.7005215   7.7749486   9.9066515
  19.5513840   6.7511344   9.1863594  56.0776863   5.9167409  62.8392448
  55.7230759   5.5288978  62.0392075  56.1352844   5.1858244  63.4546127
  67.7713089  52.7971344  88.0775681  67.4358368  52.9498062  87.1941757
  68.7230301  52.8333130  87.9819260   1.4933990  25.2142639  25.3287659
   2.0270123  25.3145180  26.1170788   1.1958301  24.3048725  25.3550205
  40.8834496  18.3384647   8.8188992  41.4694176  19.0664444   8.6117268
  41.3783226  17.8012695   9.4375706  65.2388535  20.3280163   7.8624563
  64.8325958  21.0621128   7.4017072  65.6553268  19.8126392   7.1716847
  74.2407227  18.0513039  29.4136238  74.9955215  18.1440144  28.8323154
  73.6973801  18.8163166  29.2245140  61.2868042  20.7378845  38.1098785
  62.0792542  20.3836098  38.5132942  61.0788040  21.5132999  38.6311264
  24.3727264  64.0394592  66.4932709  23.6759281  63.3849869  66.4446564
  25.1291809  63.5593605  66.8301849  82.8563690  62.0959053  32.1562309
  82.1008530  62.6738853  32.0496712  82.5855637  61.4688988  32.8268700
  24.0892048  65.7097397   1.3794194  23.1491604  65.5334091   1.4176046
  24.4600811  64.9394760   0.9488718  42.1655273  24.5601902  83.1571121
  41.6120491  24.8462467  82.4304276  42.5360909  25.3695793  83.5089722
  82.0963669  62.0496178   4.4943190  82.1958618  62.2027626   3.5547023
  81.9898300  61.1015816   4.5725150  32.6604195  48.9479523  86.9424133
  31.8436050  48.4561043  86.8579636  33.2019005  48.4148903  87.5245438
  23.2753239  55.2640953  56.4715996  24.1330967  54.8958969  56.2597351
  23.4718971  56.0852852  56.9224205  16.3789749  53.8622017  43.9754410
  16.8269043  53.4727821  43.2244835  16.1252136  54.7354164  43.6765556
  60.7080612   1.9786161  65.8438950  60.5418434   2.3900168  64.9957428
  61.6389847   1.7567441  65.8241425  58.5566711  44.2165298  75.6095963
  58.7502403  43.7530785  74.7947464  57.6145134  44.3816147  75.5732422
  61.5485992  47.1214180  57.3591042  61.3010406  46.6311073  56.5751762
  60.7193451  47.4449997  57.7110443  66.0580063  71.9688416   1.5600129
  65.3539581  71.4282227   1.9181732  66.8194504  71.3890991   1.5416219
  22.3824158  56.5545349  33.0205498  21.5047226  56.8222351  33.2929840
  22.9699593  57.0136681  33.6207352  27.0223961  10.0620518  86.0647507
  26.9427700  10.9717588  86.3516769  27.7014236   9.6916294  86.6286163
  73.4748535  15.9147472  45.5698547  73.2154541  16.0329151  46.4836235
  74.3229218  16.3535461  45.5029640  63.8251572  36.2643585  32.2894325
  63.0208893  35.9060097  31.9139690  64.1387558  36.8872604  31.6337795
  27.8306198  39.1979713  39.9234161  27.7007313  38.8634491  39.0360336
  28.6881790  39.6223373  39.8962746  10.0729504  63.1077271  33.6077423
  10.1441813  63.5606613  32.7675018   9.2109404  62.6922913  33.5835762
  11.0530281  22.4827976   5.4439697  11.8743629  22.0689545   5.1786880
  10.9353399  22.2183495   6.3563557  58.8229828  60.1167336  24.4426804
  58.4759636  59.4423141  25.0266075  58.8920021  60.8972168  24.9925137
  57.3643494   2.9815850  88.4852982  57.6708641   3.8777711  88.6236115
  56.6978149   2.8496819  89.1595078  85.5109940  45.4849396  53.2277412
  84.6962662  45.6584015  53.6992874  86.0880356  45.0925102  53.8829155
  86.2854004  27.7089825  50.9203300  85.9775314  28.6133423  50.9801903
  86.9215775  27.6250343  51.6305809  61.2479591  38.2690544  71.0158005
  60.3542404  38.3520088  70.6832199  61.1428833  37.9169197  71.8996506
  51.3535919  53.8810959  87.9886169  51.3081665  53.4440765  88.8390198
  50.4746056  54.2353973  87.8541489  61.2876816  62.1230965  72.6195374
  60.6090088  62.3657799  71.9896545  60.8314590  62.0842857  73.4601212
  46.1249771  35.6137886  35.6518211  45.4016533  35.1614037  35.2177925
  45.7130013  36.0835800  36.3769455  65.6375122  64.0280914   5.0618596
  65.8935547  64.9098816   5.3322635  64.9037781  64.1649246   4.4625754
  52.3469238  16.8701191  19.3921852  53.1412697  16.6636066  18.8996429
  52.3233948  16.2184734  20.0929260  74.4791412   0.9747629  32.8692894
  75.0409775   0.2811500  32.5236359  73.8792419   1.1771305  32.1513748
  30.0949879  63.6641769  50.5459061  29.3665009  63.8475723  49.9526901
  29.8121872  62.8961029  51.0422096   2.4198022   0.6402166   0.5984519
   2.4893467  -0.0482258   1.2598462   2.4407218   1.4559919   1.0987567
  42.4730530  18.5411205  43.4771309  42.2206459  17.9072571  42.8057594
  41.7384338  19.1534996  43.5166245  51.3676720   7.5411487  41.4710083
  51.8313522   7.0383549  40.8013611  51.7382965   8.4215040  41.4089966
  82.7536621  61.5138626  24.1278839  83.7001266  61.3832855  24.0696125
  82.6463776  62.4627838  24.1932201  72.4684601  52.4145050  51.3801346
  72.7414703  51.8548698  50.6531487  72.9899750  52.1125107  52.1238136
  49.7711563  41.5385361  40.9674606  49.0853539  42.2049522  41.0098724
  50.1637268  41.5429497  41.8404427  57.0494728  30.6617355  14.4485760
  57.5380707  30.3779869  15.2212267  56.4216995  29.9567738  14.2899475
  16.9876328  15.5321579  58.9675331  17.2536755  15.5943832  58.0501556
  16.2411976  14.9329805  58.9603310  24.5920086  42.6570091   2.3237803
  24.3060875  43.5308952   2.5898671  24.0227928  42.4325562   1.5876791
   9.0415812  22.3063622  73.2749481   9.2262774  21.9144707  74.1284943
   8.5203295  21.6472836  72.8165359  51.5287209   3.0867190  25.6872902
  51.1210861   3.5204208  26.4369354  51.3339539   3.6585042  24.9447536
  -0.2989073  44.2381859  78.0553436   0.5137727  44.7280693  78.1810303
  -0.0144305  43.3762360  77.7514496  51.1020088  70.7846756  87.6636887
  50.5669632  71.5446854  87.4348907  50.6789818  70.4191132  88.4406357
  84.3836746  68.8055573  55.5068207  84.4130249  69.4464111  54.7964134
  84.4410095  67.9574203  55.0668144  63.3081932  17.5490551  38.3349380
  63.3944626  17.7651291  39.2634315  62.9804344  16.6497478  38.3277550
  65.4030838   4.8322349  16.9989510  65.7614594   4.9148507  16.1152248
  64.8229752   4.0722966  16.9520798  15.6893005  13.9664946  25.8264122
  16.0712242  14.5432653  25.1648216  16.1730099  13.1454287  25.7363777
  40.4997559   2.8712504  35.0741577  40.8678055   2.0414250  34.7705803
  39.6237564   2.8997583  34.6893921  68.7228012   3.6717045  74.3025131
  67.9697723   4.0287914  74.7733307  69.1680145   4.4399428  73.9449844
  53.8098679  59.4855957  30.4893036  53.7875328  60.4195518  30.2808247
  53.1224136  59.1021194  29.9447098  73.7184906  30.1170940  33.6905556
  72.7673264  30.0183353  33.7324829  73.9083557  30.2137489  32.7573662
  71.7991486  13.2228527  65.0342102  72.2360840  13.8688707  64.4792480
  70.9235535  13.5824499  65.1765366  45.7814331  49.2801094  19.9101372
  45.2301216  48.5718803  19.5774174  45.4672241  49.4294777  20.8018742
  78.8431091  46.4023094  38.6732712  78.2058105  45.6899757  38.7249603
  79.5442581  46.1401520  39.2698364   0.3165650   5.4049573  56.6447334
  -0.0214035   4.6567082  57.1368027  -0.2161244   5.4292016  55.8498192
  85.9879074  64.6009216  83.5217438  86.6340790  63.9438171  83.7804108
  86.4747925  65.4249878  83.5125656  40.2749977  19.2327785  15.7456875
  41.0581245  18.8577576  16.1485538  40.0936852  18.6627369  14.9984188
  55.3046455  15.3966303  21.0589695  55.0326996  15.2847319  20.1480598
  56.2106400  15.7003717  21.0028648  31.2235432  45.9612503  14.1056957
  30.3183212  45.9816322  14.4161587  31.3698349  46.8322334  13.7366133
  56.2998276  15.2567291   0.7172384  56.2176208  14.5045738   0.1309480
  55.4939766  15.7552118   0.5817581  42.9973183  50.5301781  59.4785423
  42.7638435  49.8994446  58.7974434  42.4598503  50.2808037  60.2303238
  40.8399696  24.7438431  11.2149591  41.5921097  24.2617607  11.5586367
  41.1917191  25.6036148  10.9840946  19.9523659  59.8318520  56.9504051
  19.7500401  58.9983101  57.3752670  19.3990898  60.4704514  57.4001923
  52.9615402  34.9636040  76.6884079  53.0818176  35.8648643  76.9875641
  52.6496468  34.4940605  77.4620285  37.8283157  43.2655220  13.3634872
  38.3245583  43.2127495  14.1803055  37.9506493  44.1673088  13.0667515
  53.9974098  36.2807770   4.4455781  53.7442856  36.8445892   5.1765199
  53.9763069  35.3950272   4.8078418  20.5995159  10.9422531  80.4830475
  21.1199093  11.2259817  81.2346573  19.8328514  11.5152855  80.4925156
  70.6907120  50.2125282  31.4819279  70.1069641  50.0012589  32.2105103
  71.5706558  50.1435623  31.8522835  12.2505159   4.1139684  88.6583405
  12.5685225   3.8291025  89.5150452  12.0819511   5.0501971  88.7646103
   1.3545164  55.6294327  81.5225143   0.4481848  55.5632248  81.8231964
   1.8207091  54.9552155  82.0168076  65.7280960  69.0373459  77.9252167
  66.2547073  69.8060150  78.1444397  66.1439667  68.6776428  77.1416931
   3.5407166  48.9907455  83.7004318   3.6404479  48.6857262  82.7986298
   4.3976221  48.8413315  84.0999603   7.0797162   5.9060235  29.4447422
   6.6099200   5.2864561  28.8864784   7.8843055   5.4476099  29.6870747
  46.9453621  19.8729324  63.1465492  47.5911865  19.2688141  62.7802391
  46.5913582  20.3348064  62.3865623  54.6274834   7.3784060  41.4871712
  54.7240715   7.9853396  40.7533226  54.3174324   6.5660644  41.0869217
  21.9360256  33.9621735  18.6659985  22.3324089  34.2937431  17.8602848
  22.6448593  33.9854507  19.3088398  39.5586700  25.8940601   3.7913809
  39.8570862  25.0872498   4.2111864  39.7678795  26.5834999   4.4215674
  51.1038170  51.4351311  73.1801453  51.4884415  52.2887726  72.9811707
  50.2200432  51.4796982  72.8152008  14.4291773   2.3374279  72.0269775
  14.9085293   1.5213618  71.8838348  13.7815895   2.1203427  72.6976013
  73.3966446  28.9633369  27.5742321  73.5096130  28.0294590  27.7512760
  72.6033249  29.2036171  28.0529270  77.8831024  59.4966316  74.9570694
  77.5898361  59.3942833  75.8624725  78.1288300  58.6128693  74.6835480
  71.2371597  44.0115509  76.7858200  70.5690765  44.2795448  77.4167557
  70.7449417  43.5964050  76.0775833  58.4654961  46.2997780  77.3792191
  57.5718613  46.6426430  77.3694534  58.4887123  45.6710815  76.6578064
  18.5731792  50.3565025   2.6031075  17.9994297  50.1472359   1.8660532
  18.4791222  51.3020058   2.7189231  72.9785156  40.0930405  87.4750671
  72.3496094  39.7778168  88.1241760  73.8294067  39.8071671  87.8074570
  78.1778412  51.6817894  80.0154190  77.2405472  51.7540588  79.8351593
  78.2569199  50.9006004  80.5628891  67.6035614  66.8284988  44.5647125
  67.0150681  66.2057724  44.9914703  68.3649445  66.3053436  44.3140411
  39.0795784  49.4810371  23.0398998  38.7456131  49.5588570  23.9335670
  39.1435127  48.5379105  22.8893776   7.4666524  70.3541489  56.0107918
   7.2726278  71.2637558  55.7845306   6.6241312  69.9051590  55.9415169
  66.8047104  30.0796833  23.3527451  67.5241547  30.1566372  22.7260838
  67.2300415  29.8485336  24.1785145   7.2000904  14.9745045  79.1087418
   6.3108835  15.3091278  79.2252274   7.3460641  15.0064201  78.1632690
  30.6785698  64.7708206  46.5713730  29.7411060  64.5838470  46.5220108
  31.0505295  64.0129242  47.0224571   3.1649933  71.0230255  80.9580994
   2.5990705  71.7325058  81.2623978   3.9694431  71.4608765  80.6799240
  58.2142296  71.2906113  48.0676575  58.3047485  72.2395172  47.9804077
  58.3354225  70.9557495  47.1791687  70.9268494  29.5719090  49.9016075
  70.6658249  29.6363010  50.8202782  70.1223221  29.7416878  49.4115639
   1.6054362  50.9406815  86.7215271   0.9362178  51.0070763  86.0403748
   2.0244651  50.0946236  86.5639496  59.6968727  40.9467049  52.0785904
  60.4477272  40.6232109  52.5763855  59.3007507  40.1598511  51.7041893
  67.8598251  48.2001038   4.8141875  66.9386444  48.0720444   4.5877814
  67.9906998  49.1467018   4.7588844  65.4828873  43.4340439  66.4612885
  65.6242599  43.5996895  67.3933868  64.5312500  43.3922958  66.3670807
   9.8317118  63.1891823   5.1703305  10.5372448  63.0405350   5.7999010
   9.7667904  64.1418610   5.1038685  80.6114426  46.2538567  42.0720062
  79.8477249  46.8297005  42.0350685  81.0723419  46.4141693  41.2485352
  22.7842197  41.5420036  44.0310097  23.0519257  41.6027451  44.9480057
  23.5968056  41.3702850  43.5551453  52.8050690  52.2228661  12.3399773
  53.6830025  51.8511391  12.4253101  52.8553543  53.0630264  12.7958660
   7.6502314  27.6293716  11.6182756   7.4213014  28.4843292  11.2537603
   7.4898643  27.0134525  10.9033232   3.8553035  67.7884369  59.7395134
   4.6774426  68.1266785  60.0943565   3.5843854  68.4437103  59.0965080
  44.9296494  10.9742966   7.2202454  45.4109268  10.1484394   7.1695867
  45.2468033  11.3874617   8.0233278  65.8281250  60.0518303  75.2354050
  66.3724136  59.3287201  74.9238205  66.3593826  60.8336868  75.0847397
   6.9465976  46.8165245  23.9083672   6.3462124  46.3475800  24.4879036
   7.3876891  47.4458694  24.4789791  79.6603012  15.1464376  66.5818863
  80.5730286  15.0111399  66.8365402  79.3103256  15.7364454  67.2494507
   4.0729885  26.3325729  78.4125977   3.8414702  25.8535175  77.6169052
   5.0187263  26.4644661  78.3461456  69.3948288  21.6068211  51.0862541
  69.8615112  21.4218273  51.9012489  70.0860291  21.7045002  50.4313240
  52.1092758  40.5662804  80.3713989  52.1459579  41.3153648  79.7766190
  51.3619232  40.0530357  80.0643692  37.0118065   1.1137236  51.5386047
  37.5186043   1.7821212  51.9997292  37.2866173   0.2877345  51.9366646
  83.0084000  52.2215042  42.8301964  83.4939804  51.6066513  42.2802925
  82.4133682  51.6700783  43.3382339  66.5446701  21.8781815  51.4114914
  66.2705307  22.6738701  51.8675194  67.5011826  21.9071636  51.4331970
  47.6790237   3.5881400  60.2095375  47.6036682   3.3759968  61.1398888
  48.3424644   4.2772093  60.1739769  27.3457336  53.9618797  20.2119064
  28.0789757  54.3828316  19.7631454  26.5992184  54.0948105  19.6277180
  55.0434570  11.3988953  20.1444511  55.1074753  10.5307980  20.5426216
  54.1435890  11.4487219  19.8219795  60.8057098  13.1196632   2.7220943
  59.9705620  13.5873537   2.7170525  60.6718330  12.3970098   3.3353491
   4.7704039  47.9299507  81.6512604   4.4706345  47.0221977  81.6997986
   4.6333957  48.1788788  80.7372055  85.7570953  50.1101189  35.1495094
  85.5781784  50.9177666  34.6679192  85.2862549  50.2149506  35.9762802
  57.4457283  59.2027130  72.2545166  57.8331261  58.9922523  73.1041412
  57.2812920  60.1448975  72.2930450  25.6024017  57.5020943   9.2536516
  25.0138664  58.2313309   9.0585375  25.0378113  56.8377914   9.6488361
  39.6602325  39.5245667  72.6208267  39.8477974  40.4629707  72.6421509
  39.0101128  39.3945160  73.3112335  57.4051971   8.4489870   2.2320290
  58.1247787   8.0608549   1.7342470  57.2586517   9.2993393   1.8177128
   7.8564939  12.8736525  20.1395741   7.1335869  12.4602098  20.6114864
   8.2789478  12.1541071  19.6705112  51.2318192  56.7311058  80.8546143
  51.7664261  57.4093132  80.4417419  50.3301430  56.9806290  80.6522369
  61.8491821  66.5919495  49.0115318  61.0571861  66.2126999  48.6305542
  61.5336075  67.3259659  49.5386543  30.5956230  58.7757225  45.5786781
  30.1646175  58.7325859  44.7250938  30.8776417  57.8772507  45.7502670
   1.6684647  13.6001949  64.8088837   1.6705900  13.8215084  63.8776245
   2.2838423  14.2182121  65.2033463  50.7429733  25.8361282  77.1374741
  49.8959503  26.2560043  77.2874451  50.5237045  24.9451923  76.8647308
  24.4677010  22.4556847   7.8677864  24.5746250  21.6859818   7.3088989
  25.3575840  22.7842827   7.9956985  49.7298889  37.5187836  82.7430801
  49.0917358  37.4277267  82.0354767  49.2377129  37.3119240  83.5375595
  25.2787094  51.7952728  56.5549355  25.2076416  52.6363068  56.1034470
  25.7026691  51.2177353  55.9201622   4.3865738  62.3983345  29.5169926
   4.3714905  62.2803497  28.5672131   4.3319483  61.5101166  29.8695812
  50.2709694  30.8708744  47.0692215  50.8844719  31.0489044  46.3563728
  49.4211655  30.7830620  46.6375313  48.2992134  55.7656555  17.3711014
  48.0613594  55.1826744  18.0920658  49.1294518  55.4177475  17.0456886
   5.1505842  37.9440308  16.6693325   5.6930246  38.5851059  17.1286926
   4.3556590  38.4245949  16.4382782  27.0756378  47.1482239  65.2740555
  26.3518677  46.6535072  64.8898087  26.6564236  47.7389641  65.8997650
  17.1050549  14.5072546  82.6302261  17.7840538  13.9754219  82.2150803
  17.3270283  14.4949713  83.5612488  33.1397743  49.5671692  64.6645813
  32.8537331  50.1347885  65.3802719  33.4528694  48.7736282  65.0987396
  17.3661900  25.6937771  71.5958633  17.6623840  26.4244423  72.1386642
  17.2541656  26.0730000  70.7241592   4.0352273  36.6038475  84.0563431
   3.3269839  37.2102661  83.8398209   4.5703559  36.5676956  83.2635193
  28.2354851  65.5176697  51.9270134  28.2122765  66.3679504  51.4880142
  29.1616745  65.3734436  52.1209259  20.0137615  42.9301987  37.4319801
  20.6424313  42.4149094  36.9265251  20.2287769  43.8398323  37.2256508
  36.0016060  54.0066185  63.5391922  36.0920982  53.6849022  64.4361572
  35.1349297  53.7077942  63.2638550   8.8644629  59.0146523   3.3505595
   8.6945496  58.9393425   4.2895427   9.6348839  58.4664154   3.2018399
  49.3830414  18.1110058  66.6721725  49.7670555  18.4635792  65.8693924
  48.4570312  18.3473682  66.6185913  83.7932739  70.8665237  29.5067959
  82.9125671  70.7182770  29.8512096  84.3537216  70.8857040  30.2825260
  18.1429577  60.3460960  42.3323364  18.7141533  59.7561913  41.8404198
  18.2935524  60.1160049  43.2491837  85.9090118  27.8122158  62.0169067
  85.5743561  26.9374523  62.2144585  85.4327011  28.3909626  62.6122398
  14.2197733  20.5252514  56.7614670  14.7088337  19.7335358  56.9856033
  14.8867283  21.2089252  56.6982651  12.0448856  50.5295677  67.4889984
  12.3562889  49.6250572  67.5224533  12.8042374  51.0538673  67.7434082
  66.9787292  50.3174667  76.7388611  67.0506439  51.2404518  76.9820786
  66.8350220  50.3296242  75.7925873  82.6565781  66.3200302  35.5246086
  81.9033737  66.8702774  35.7394409  82.2914047  65.6092758  34.9976234
  69.3843765  42.9275970  65.9348373  68.5744934  43.1496811  65.4754868
  69.4489136  41.9755249  65.8598557  29.6896839  12.5556154  10.1462078
  29.3356781  13.4442835  10.1805630  30.1690693  12.5205984   9.3184433
  15.0454607   0.7989902  10.7075577  14.1376066   0.5162331  10.5976381
  15.1946821   0.7633926  11.6523848  52.6565704  40.5415726  20.7157707
  52.9702454  40.0914879  21.5001564  52.8992462  41.4574280  20.8519669
  15.0012379  39.9174881  28.2065029  14.3613558  39.3229332  27.8149796
  15.8230419  39.4268608  28.1939983  67.1687088   6.9140072  39.0158234
  67.0349960   6.5370560  39.8854561  67.0426636   6.1799169  38.4146118
  53.2508965  68.4138489  74.9088974  52.8908615  68.4875259  74.0250549
  53.7963066  67.6277390  74.8805847  32.5476418   1.7378647  69.4953156
  31.6308498   1.5293688  69.6749115  32.9468956   0.8953001  69.2787170
  55.3060722  52.9812088  51.9038849  55.2509880  52.7673988  50.9724998
  55.6100922  52.1733055  52.3175201  72.1492691  63.8973656  87.9361038
  72.0382309  63.4003220  87.1256485  73.0941162  63.8976555  88.0893631
   0.7091635   2.1108782  47.5315971   1.5528685   2.5535462  47.6234589
   0.2486226   2.3011415  48.3488693  64.1985168  18.4086933  64.4143524
  63.7676506  19.0440235  63.8425636  64.7932510  17.9308834  63.8362312
  10.5901775  36.2418022  84.0367203  10.9877529  35.4219360  84.3299484
  11.2731762  36.8995056  84.1677628  49.3067856  34.8023224  25.0789547
  49.3091545  34.2668915  25.8723907  48.5184898  34.5304909  24.6089230
  53.7788467  54.1934357  41.2027855  52.8383331  54.3684464  41.2349014
  53.8478661  53.2413597  41.2736549  59.0672035  55.5258446  66.0853271
  59.9858818  55.7744980  65.9832077  58.9398193  54.8159904  65.4559479
  79.3240051   6.7785320  55.0477905  79.5868988   6.3126726  55.8415756
  80.1061172   6.7717805  54.4959831  59.4153595  13.7571325  23.3911152
  58.8104362  13.1862030  22.9174671  59.8976173  14.2175064  22.7042999
  67.3736801  36.5637932  34.5422363  68.2081985  36.5636940  34.0733910
  67.2638168  37.4683189  34.8354836   0.7297820   6.3145819  27.5576134
   1.4187585   6.9146399  27.8430481   1.1789666   5.4797573  27.4252014
  32.9466438  16.7202244  10.9672661  33.8598633  16.7991142  11.2430201
  32.9845009  16.7191334  10.0108156  50.7921906  15.0318050   5.1789742
  50.6943398  14.8794460   6.1188908  51.6307487  15.4858541   5.0959592
  67.6994858  10.1271715  46.6013107  67.1092453  10.1220999  45.8477707
  67.8505630   9.2017031  46.7934456   5.7633448  15.8860378  76.7107391
   5.9516072  16.7994614  76.4952164   6.4695978  15.3914089  76.2950668
  48.9739952   9.2073498  56.2559738  48.7117538   9.0966272  57.1698685
  49.2558327   8.3351059  55.9803085  40.8767471  67.3426895  65.0016861
  41.3928986  66.8974838  65.6737061  41.3174553  68.1835098  64.8790741
  77.7268982  47.1136589  67.5956345  78.3415527  46.4146729  67.3723526
  77.1161194  47.1398468  66.8590927  39.0338860  47.3355103  31.7977333
  38.3664856  47.8345070  32.2687073  39.5353088  47.9968414  31.3208237
  51.6441612   4.8215518  13.6243267  50.6971397   4.9585981  13.6489058
  51.9975166   5.4839392  14.2181406  71.6121826  63.2641335  30.6377506
  71.7966003  62.4178734  30.2302380  70.7361450  63.1646767  31.0104370
  43.2747765  45.1018105  77.8284149  43.3496361  44.9973297  78.7769470
  43.1831474  46.0456352  77.6979065  80.1448517  35.0087814  64.6141586
  79.4164352  34.5537987  64.1915054  80.0330124  34.8252373  65.5469131
   8.2228422  67.9374008  61.9169350   8.0168962  67.0483475  62.2057304
   8.6949015  68.3252716  62.6537819  -0.3127727  60.1104660  75.5379639
   0.2921014  59.4778900  75.9255295   0.2358629  60.6468964  74.9657135
  64.4119720  36.3561668  13.3217583  64.0499039  36.7294350  12.5181351
  63.8249207  35.6306839  13.5345545   3.4464586  58.7960968  33.7832222
   3.2741959  59.2411613  34.6129684   3.1500530  57.8974419  33.9274139
  83.8609543  10.3189859  60.7798767  84.5160522   9.6555004  60.9963570
  83.3665695  10.4408445  61.5904083  65.4990997  61.1914482  46.5243530
  65.9798584  61.9346771  46.8886604  65.4441223  61.3779488  45.5871086
  37.3531570  34.7580681  84.5963440  37.6725426  34.3345566  83.7995605
  36.7094307  35.3954887  84.2872391  34.3542175  13.5478401  84.6599731
  34.9874229  13.6290483  85.3731995  34.7581749  14.0123882  83.9270096
  36.9524422  46.3550529  24.1336861  36.0735397  46.6458740  23.8904171
  37.2769775  47.0382462  24.7203350  76.1488037   4.8370872  68.5152435
  76.6200638   4.7214742  69.3403397  76.5160980   5.6372848  68.1397247
  13.4412880  23.3093987  67.5267792  13.5821095  23.9516964  68.2223740
  14.0545168  22.6020069  67.7262344   9.0756855  42.6103516   1.4897648
   9.1908054  42.3453560   0.5772092   9.6105318  41.9922943   1.9879400
  36.9885139  27.6117878  67.7316818  36.2576485  28.2284718  67.6896286
  36.8293381  27.1057014  68.5284042  66.4983597  25.4990559  32.6151199
  66.7653961  25.7041779  33.5111351  67.2234421  24.9841633  32.2610321
  27.6322765  48.9970245   7.2401094  27.8376217  49.9035759   7.0115581
  26.7130756  48.8906021   6.9952078  37.9685822  68.1132889  80.0540161
  38.2606888  68.7286758  80.7264709  38.0491219  67.2528229  80.4655380
  61.3925400  64.6856613  22.5958805  60.9583282  65.5387039  22.5997543
  61.6363564  64.5451660  21.6809769  50.7956619   4.0977993  55.3209000
  51.5548592   3.5170739  55.2697983  50.9289856   4.5959139  56.1273384
  75.4355621   8.1584167  53.4343147  75.9138947   7.3550591  53.6393700
  75.1348190   8.4815197  54.2836647  17.6246033  42.9486465  77.9656982
  17.3842564  43.0542336  78.8861923  17.6709232  43.8424187  77.6262054
  76.1571350  69.4079056  40.4795952  76.3919144  69.5214767  39.5586128
  75.6147614  68.6193085  40.4930191  16.1758575  40.6357574  77.5167236
  16.7216740  41.4173737  77.6027222  16.6471767  40.0817719  76.8944778
  46.3578568  59.0354347  39.9256592  45.5805473  59.0094261  39.3676758
  46.1676521  59.7175369  40.5697060  32.9536552   0.7232977  29.5556736
  32.7432213   0.1767573  30.3128014  32.8993607   1.6203104  29.8852959
  56.4152184  59.2371140   4.1262054  55.9240532  59.7977257   3.5256228
  57.3174171  59.5505371   4.0626664  14.4016743  57.4465294  27.7124062
  13.5039568  57.7549934  27.5891762  14.9478006  58.1675873  27.3992691
  38.7519722  65.3611908  47.4394951  38.0250282  65.3855896  46.8172455
  38.3866348  65.7187424  48.2487602  77.8159866  12.2654343  36.2556152
  77.7208786  13.0161619  36.8417854  78.5195694  12.5164824  35.6571350
  63.6346359  38.6747818   1.2932997  62.9663620  38.0540199   1.5836369
  63.1835861  39.2337341   0.6605622  22.7997169  26.4848404  12.3627491
  22.0902805  25.9276562  12.0426254  23.0324020  27.0313091  11.6121082
  20.3015385  52.2258720  13.4841251  19.7914371  52.9064178  13.9233141
  20.0755119  52.3169518  12.5584631  75.1469498  53.2824783  13.3039217
  75.9237213  52.7233047  13.2907467  74.4317856  52.7053185  13.0362272
  67.2849731  56.6139374   0.8171102  68.1672287  56.3104401   0.6032141
  66.7049561  55.9732361   0.4056292  21.8334255  51.1230927  55.6554146
  21.8161755  51.9621658  56.1157265  21.2643852  51.2542381  54.8969765
  70.8895493   1.8602386  15.7678976  71.3216934   2.6365616  15.4118013
  71.3649216   1.1238492  15.3832083  31.0292015  57.7679329  87.6901321
  30.1228867  57.4927101  87.8282471  31.0319252  58.7004166  87.9062271
  52.8631020  22.9249191   0.4592563  52.9244766  21.9752293   0.3565235
  52.0908165  23.1714706  -0.0496815  18.0092983  43.9502831  22.9040813
  17.4766808  43.8638191  23.6946964  18.8318825  44.3323517  23.2100430
  51.1063309  45.0664101  55.3519745  50.3598442  44.8418846  54.7964745
  50.7307854  45.5961609  56.0552254   1.3555889   0.7897132  21.2980442
   1.7596351   0.0796639  21.7968502   0.4966251   0.9085501  21.7033710
  44.7188263  28.5778542  64.3899384  45.2359428  27.8525600  64.0395584
  45.2754974  28.9642467  65.0659943   2.0424175  49.1181641  50.9451561
   2.3317387  48.6162987  50.1831474   1.7842188  48.4546776  51.5849609
  80.6676865  42.7679443  19.9724979  80.9465714  43.4297409  19.3396626
  79.7147293  42.7409782  19.8866119  67.4203873  10.7340851   5.3744917
  67.7453461  11.4171104   5.9611011  66.5257111  10.5686932   5.6718578
  84.4097290  12.0211639  34.3310928  84.2654419  11.4932928  33.5457497
  83.6591339  11.8259802  34.8921127  45.2237434  65.0265808  68.8298645
  44.3359375  64.7102127  68.6626968  45.5460205  64.4716034  69.5400543
  70.7587967   1.0118972  69.3166351  71.0156021   0.0929893  69.3933868
  69.8552780   0.9826002  69.0019455  36.7425919  25.9921436  77.6294556
  36.4410553  25.4974937  78.3914490  36.8371811  26.8896008  77.9486084
  62.2775421  31.4109783  15.2107525  63.1327667  31.8114071  15.3672009
  61.6477890  32.0650368  15.5138321  19.5900574  16.9247379  45.3633957
  19.5675278  16.7079716  44.4313354  19.6974430  16.0812340  45.8029442
  32.6227722  65.2405701  20.6767406  32.5295792  65.8960037  19.9854031
  31.7237816  65.0082779  20.9093151  49.3531799  14.4722424  75.8715515
  49.9012871  14.8613815  76.5530090  48.7659569  13.8823824  76.3442688
  64.1513519  12.6635733  68.9956512  64.3750229  12.3368912  69.8671341
  64.9928284  12.7429771  68.5463791  78.6556625  29.9175701  41.2175713
  78.8661499  30.7958336  40.9004250  77.7885742  29.7338276  40.8561478
  52.6762123  10.9224319  57.8699379  53.2922630  11.6542091  57.8350677
  53.2185097  10.1459875  57.7310867  67.3027039  34.8610764  22.8334942
  66.6948700  34.1301346  22.9452534  67.8771591  34.8138618  23.5976944
  14.1214972  36.5054932  13.7734861  13.3736944  36.9844894  14.1306782
  14.8739710  36.8354073  14.2645817  11.5024424  67.5355301  74.6094589
  10.7228622  67.0506134  74.3386383  11.8856611  67.8496246  73.7904816
  86.6439590  34.2348328  16.0740547  87.0830688  34.4990120  16.8825226
  86.5235519  33.2895775  16.1647568  58.3862762  35.0076523  84.5363312
  58.2133026  34.1834869  84.9913712  57.5185089  35.3743553  84.3668060
  23.4199066  44.5945740  81.2157059  23.9291553  45.3537521  80.9318924
  23.3851185  44.6723442  82.1691055  76.2868195  48.1578636  51.7247276
  75.3763657  48.3891869  51.9085808  76.6229782  47.8276558  52.5579071
  50.3376350   7.3665805  54.9423866  51.0422516   8.0107431  54.8730774
  50.7772484   6.5206099  54.8569107  51.7420082  22.5471706  81.6643143
  51.0868683  22.1705074  81.0768204  52.2461472  21.7949810  81.9746170
  81.4437332  13.8546467  15.3178120  81.5063858  14.5546045  15.9677105
  80.5506363  13.5225115  15.4088564  42.8703766  32.3534241   9.9011402
  42.6903381  33.2369003   9.5797586  43.4859848  32.4818840  10.6227732
  77.0404739  31.3816357   1.8442478  76.0886307  31.2809296   1.8354965
  77.2308121  31.7855930   2.6909013  18.1755772  49.0709572   9.4347725
  17.8962440  49.7583160   8.8300085  19.0891304  48.9043922   9.2025900
  68.2768784  71.1601868  42.6130486  67.6804657  70.4766388  42.9184723
  67.9302444  71.9676437  42.9926453  83.4661255  58.6664963  83.9474106
  83.1011200  57.7913704  84.0784149  82.7135620  59.2533913  84.0211258
  64.0090485  30.2774143  54.1581230  63.7237129  31.1206169  54.5100136
  64.3230820  29.7931232  54.9217148  75.4309158  44.5981216  26.3943768
  75.5346069  44.8535614  27.3110180  74.5129013  44.7833939  26.1964836
  85.6360092  57.5657387  22.8504734  85.9732742  58.1345253  23.5425510
  86.1088257  57.8388939  22.0643044  14.6831408  29.2350292   5.5715809
  15.1884251  28.6501656   5.0069094  14.0053320  28.6754589   5.9506445
  80.4102097  45.9222031  81.0327682  80.0341949  45.2000008  81.5360260
  81.2571487  45.5907402  80.7343521  50.5617676  46.5084343  52.4804001
  51.4342537  46.1336365  52.6009254  50.7231064  47.3778419  52.1138840
  61.1831017  55.2643623  82.4456635  61.9224014  55.5812912  81.9267960
  61.2090569  55.7897224  83.2453842  81.8136063  22.5522957   0.2259134
  81.2998199  22.9533825   0.9268977  82.5437469  22.1281338   0.6767123
  55.0741005  19.2174683  23.2286987  54.9606972  20.1600437  23.1065350
  56.0070724  19.0667934  23.0767574  65.6410217  32.0224113  20.3601208
  66.4518661  32.5193100  20.2512512  65.5436401  31.9275322  21.3076172
  12.9733028  69.8552551  19.1704102  12.1118431  69.7447739  18.7680244
  13.3329039  70.6391068  18.7550888  56.8080978  13.3119030  81.9551010
  56.2438583  13.9315100  81.4925537  56.2647514  12.5321388  82.0690155
  57.8808899   6.4523449  24.1801414  58.7176704   6.0727649  23.9119129
  57.7095337   6.0703187  25.0409107  62.7379189  52.5627403  75.4477081
  62.3245277  52.2784958  76.2629013  62.1875458  52.1917419  74.7580109
   9.6145077  11.0533695  28.5779266   8.8052912  11.5416069  28.4261894
  10.1573200  11.2458620  27.8133793  46.9285583  24.8377895  10.3755178
  47.4087791  24.9107285   9.5507145  46.2900925  24.1417542  10.2201929
  57.7180252   1.8917060   7.8064613  57.7241211   2.6477199   7.2194028
  57.2704430   2.2030025   8.5932245  34.1517258  42.9065552  77.8073349
  33.2030792  43.0333557  77.7924576  34.5031891  43.7583694  78.0664139
  49.3407593   6.1675329  75.3507767  48.8384247   6.7517467  74.7828064
  49.8417435   6.7554684  75.9160919  82.1032639  45.6584854  78.4605484
  81.8494797  46.2500877  77.7521439  81.5325851  44.8975487  78.3531494
  52.1393509  22.8049831  45.3065491  51.6145287  22.1282101  44.8790283
  52.9215088  22.8823147  44.7602158   3.0170145  39.2281418  58.4794540
   3.0260801  39.8312073  57.7361717   3.3765182  39.7376480  59.2056732
  81.7565460  69.4083023  17.2936859  82.6924667  69.5817947  17.3946285
  81.4233627  70.1649323  16.8112698  13.6213598  21.0733681  83.0365982
  13.2790966  20.7511978  83.8704376  13.4751282  22.0188465  83.0669327
  72.1865234  14.9522800  11.4438066  72.2552185  14.9007645  10.4904652
  72.6407318  15.7630224  11.6732044  24.7898750  66.6129456  71.1914749
  24.8416862  67.5657806  71.2665939  25.7008095  66.3204575  71.2212143
   1.7229836   7.6932120  83.0951767   2.0130067   8.5995045  83.1988678
   2.2897439   7.3371677  82.4108887  84.3083878  49.7663765  32.1605606
  83.8687439  48.9685783  31.8665066  83.9273682  49.9469757  33.0198860
  12.7480774  59.5609589  32.3078880  13.0270262  60.4247894  32.0042114
  13.5464869  59.0331306  32.2947845   1.6210665  29.4891911  32.3797264
   1.2225085  29.0996952  33.1579781   1.2150216  30.3531609  32.3095970
  37.5621262  65.8912125  61.2240562  38.3618660  65.5776901  60.8017426
  37.0879898  66.3484879  60.5295601  52.8236465  20.3188152  24.9718380
  52.9528122  20.0339394  25.8764896  53.0846100  19.5644341  24.4435978
  60.0647507  67.0005646   9.0761881  60.1834297  66.0590591   9.2015629
  60.9048347  67.3041534   8.7322063  79.8677673  57.1706619  40.5881500
  79.0204010  57.4339218  40.2291260  80.2551575  57.9848709  40.9094353
  33.5282249  68.0174713   2.2646165  34.1194305  67.4538879   2.7636960
  33.4047050  67.5587845   1.4336030  68.3450470  25.4365883  56.1614990
  67.7413940  24.9033775  56.6787262  68.6848373  24.8372669  55.4969788
  61.3853226  41.1200180   5.4890418  60.8584251  40.4101334   5.1220632
  60.9258308  41.3695374   6.2908154  41.2372246  28.0574360  26.0212650
  41.8850937  28.5909195  26.4815865  40.4078293  28.5144157  26.1609211
  57.1537209  23.3127384  51.8847504  57.3124466  23.9691639  52.5630913
  56.3584175  23.6114960  51.4437675   0.7545059   3.4823279   1.7161489
   0.1637613   3.0493257   1.0999007   0.2833060   4.2706079   1.9859958
  17.3292675   6.9760990  61.2524567  18.0889206   6.3947411  61.2180862
  17.4035587   7.5141277  60.4642715  86.6256180  31.5419044  51.7557449
  86.3357391  31.5986786  50.8452606  87.1600342  30.7484322  51.7879219
  78.4568253   5.4749861  45.4595833  78.4795609   4.5999660  45.0722122
  78.6147385   6.0667453  44.7239761  61.0501328  13.3139782  27.7443085
  60.3102455  13.3517408  28.3504219  61.7632256  12.9374228  28.2599983
  84.2068939  37.9355164  19.2317696  83.5901031  37.2412567  18.9998169
  84.3487091  38.4128647  18.4142971  47.5644608  45.0260849   9.2028103
  47.3016472  45.5048599   8.4167194  48.5034485  44.8781204   9.0904064
  61.2983894  35.3611298  31.3422909  61.2949486  34.9057617  30.5003529
  60.6506195  34.8939705  31.8699093  72.4820786  33.9717903  19.0277691
  72.5919571  33.1510620  18.5475979  73.3254013  34.1121712  19.4582672
  18.8621769  39.7178116  19.6861591  19.7038307  40.0896263  19.9499836
  18.3570995  39.6686363  20.4977684  75.6706390  52.7312317  64.1979980
  75.7617264  51.8501282  63.8352470  74.8331604  52.7141418  64.6612244
  86.2288742  58.9911461  42.5962486  86.1763535  58.3605957  41.8780022
  85.5113754  59.6027870  42.4309425  28.0466022   1.0443455  87.2136612
  27.6336079   1.4445906  87.9788208  28.8464241   0.6443281  87.5549850
  57.8448524  17.8620358  41.9790916  57.6737137  17.5589409  42.8707619
  57.0050697  17.7691746  41.5292320  45.5861244  51.7902756  19.1864014
  45.6840439  50.8396454  19.2406693  45.0784683  52.0235214  19.9636497
  54.3252487  61.1626854   6.0841665  53.6990013  61.3046074   6.7940288
  53.8026543  60.7881660   5.3750405  79.8348312  23.4094334  26.4177094
  79.3358612  22.6020393  26.5416965  80.3704758  23.4836464  27.2075310
  19.5335789  36.0637550  87.7887192  18.8083534  36.6757164  87.9143448
  20.1221905  36.2357979  88.5236816   2.8234682  30.7250290  22.0392990
   2.5040195  31.1957817  21.2695084   3.6696713  30.3690548  21.7682724
   9.2396374  32.8001022  78.0037460   8.9435596  32.8364334  78.9132843
  10.1299391  33.1508598  78.0274887  45.5625343  25.7956142  83.7773972
  46.2829437  25.5108337  84.3396606  45.0011826  25.0243454  83.6982498
   0.8684307  34.9153099  53.3445816   1.2917501  35.1463852  54.1714058
   0.4246121  34.0868645  53.5260582  33.8263817  19.6431961  78.7853775
  33.8491020  19.1115608  79.5810394  34.5743370  19.3379612  78.2719345
  66.7359543  62.7208176  51.6728935  66.0852966  62.0200653  51.6302795
  66.2193680  63.5229454  51.7501297  24.8174953  54.3584061  40.7906647
  25.5558567  53.7767525  40.6097298  24.1112366  53.7717934  41.0614319
  38.1208992  49.1052628  39.9519386  38.8050766  49.6606369  39.5781822
  38.3446198  48.2211647  39.6611633  80.5679474  36.4803772  62.3191261
  80.6890793  36.0279732  63.1539230  80.9332047  35.8821182  61.6672783
  72.7593002  63.6056900  70.8668671  73.1691437  62.7409706  70.8441010
  72.2492676  63.6077576  71.6768646  59.5388527  61.0558014  11.3912935
  59.0314102  60.6637344  12.1019402  60.3674431  60.5765839  11.3959608
  17.0522251   1.7142743   5.7105951  16.5414982   1.2235121   6.3544450
  17.5075283   1.0421972   5.2034039  46.9388885   7.5222955  61.3559647
  46.4257584   7.3001938  62.1328812  47.6573944   6.8898578  61.3546257
  54.6385536  29.3365612  81.1258926  55.3351669  29.2968674  81.7811661
  54.0730896  28.5922680  81.3320694  63.6339226  24.3029423  76.1034241
  64.3132706  23.8751545  75.5821609  64.0139771  24.3756065  76.9789276
  81.1882706  24.2094574  28.8705730  81.7329941  23.4804249  28.5738811
  80.6989517  23.8559933  29.6134472  52.9207306   6.4248266  26.5082359
  53.0517845   5.7420168  27.1661320  53.7967491   6.7769923  26.3507576
  68.4079742  65.3672943  40.0094185  68.4754181  66.2957306  40.2323227
  67.6523056  65.0556717  40.5075073  41.0488129  45.6823654   4.5472422
  40.5220222  45.9829979   3.8067408  40.4145164  45.5377731   5.2493777
  34.7690315  51.9958801  78.4617081  34.8633957  51.4394722  77.6885681
  34.0589867  51.5930328  78.9614944  22.5676842  38.8248444  56.1562119
  22.1321793  38.0121078  55.8992577  23.2571087  38.9440308  55.5029716
   7.8610702  34.9053802  75.9588547   8.5580387  34.2700348  75.7951279
   8.1191006  35.6785889  75.4570618   5.6594663  21.9330349  87.3073273
   5.1482153  22.4145279  87.9577255   5.3130770  22.2271080  86.4648514
  13.5736446  41.1180992  78.5462723  14.4351225  41.2330971  78.1451874
  13.7200127  41.2790718  79.4784164  61.5380554  32.4000359  87.1694946
  61.9544716  32.2970314  88.0251923  61.8986206  31.6884594  86.6404572
  65.0563583  70.1679535  80.3547516  65.1405411  69.8343277  79.4615326
  64.2739868  69.7368774  80.6986923  27.2873554   0.1611774  45.6854858
  27.5127277   0.8656243  45.0778732  27.8985252   0.2688011  46.4142685
  40.1741867  64.2933273  69.7181168  40.7932358  64.9240341  70.0858459
  39.9533081  63.7190971  70.4514008   5.8789077  70.5999527   7.4045796
   5.5429368  69.7116699   7.2849741   5.6949444  71.0394135   6.5743599
  28.2600594  67.7022934  21.7159653  28.5417442  67.3644028  20.8658371
  27.3999672  68.0871964  21.5476742  69.0740433  64.4110184  84.6787338
  69.6989670  64.9506683  85.1629639  69.5617523  63.6166382  84.4611664
  46.5518303  65.8231430  80.6804123  46.6410980  66.7705307  80.5768585
  46.4990845  65.4882812  79.7852478  66.2854156  18.8965569  45.4156151
  66.5438385  18.4771004  44.5949440  65.4790878  19.3657303  45.2012672
  58.4914665  52.8449364  67.7829590  59.0895615  53.5603447  67.5668488
  57.7660599  53.2693253  68.2411194  66.8306274  55.5061226  81.8041306
  67.2701797  54.9681244  82.4626007  67.1506805  56.3933640  81.9672241
  64.1009521  42.5706291  70.6875687  63.4997902  41.8380585  70.5527115
  63.8630219  42.9207916  71.5460587  52.4074516  13.0653954   0.5485998
  52.4824486  13.2363167  -0.3902256  51.9490395  12.2269020   0.6035245
  82.0457916  13.4833946  71.8416901  81.7839966  13.1143894  70.9981689
  82.9284286  13.1432743  71.9883194  81.0763779  30.4602528  11.8383217
  81.3892441  29.9848232  12.6079378  80.8498917  31.3293514  12.1693888
  54.5914650  40.7456703  13.3064814  55.4155464  41.0129967  13.7134953
  54.8557320  40.1913910  12.5722008  60.4518394  34.3983231  66.0689468
  59.6107368  34.1717339  65.6721725  60.4396057  33.9629555  66.9213181
  51.6732140  68.3424377  28.3796349  50.9892807  68.8430176  28.8244724
  52.1901665  67.9604492  29.0889168  81.5777588  10.4697294  15.6015596
  82.2352600  11.0168390  16.0312080  81.5014801   9.6997910  16.1651268
  72.7207718  34.6251259  82.2687531  72.9534836  33.6999817  82.1900787
  72.2023010  34.6742172  83.0718765  35.3228683   1.5737609  62.2476387
  34.8846741   2.0588560  62.9468536  35.5361519   0.7274019  62.6405983
  77.0331497  60.9072227  34.2589264  76.3228226  61.2448387  33.7133217
  77.4941177  60.2863426  33.6947899  56.6647949  42.8659821  82.6332932
  56.6637840  43.6611328  82.1004028  56.3135719  42.1893196  82.0545044
  84.5433426   0.9694689  42.6896400  83.7699661   0.9542261  43.2534561
  84.1997299   1.1602265  41.8168449  78.8710709  70.5254288  88.0682144
  79.2379074  71.3638229  87.7875671  78.0571823  70.4417877  87.5714111
   8.5186729  20.0558872  78.0992584   7.8023248  20.4172535  78.6212692
   8.9948339  19.4889584  78.7059708  67.3301468  48.1472778  80.1107635
  68.0769272  47.9397202  79.5490952  67.5437927  49.0008621  80.4875717
  42.8175774  60.4828339  35.0089836  42.8546066  60.7449036  35.9288635
  42.7250137  59.5304680  35.0348091  57.6839905  36.2538986  13.0502205
  57.7914696  35.4238625  13.5146742  56.7412949  36.3237724  12.8996334
  30.6411018  37.0771217  10.4180899  31.2076092  37.3920212  11.1224604
  31.2278709  36.9670944   9.6698723  68.8289642  23.1301193  48.6081238
  68.4906082  22.3383923  48.1898956  68.6793594  22.9897366  49.5430794
  49.4811249  22.8626423  67.2097931  49.3327713  22.4290314  66.3694305
  50.4244652  23.0232487  67.2332001  39.6669846   9.0456562   3.3822315
  38.9069405   9.5189724   3.7206659  40.3736610   9.6912508   3.3889546
  82.6226120  32.5686455  20.3192501  82.2099838  32.2615738  21.1265144
  82.5813751  33.5231934  20.3772697  36.1711540   5.5163188  76.3350601
  35.2962990   5.4229693  76.7120819  36.7460136   5.0568123  76.9471283
  73.3485947  22.4757156  49.7093277  74.2608261  22.6743259  49.4981117
  72.9223938  22.3739319  48.8583107  17.2402840  70.2095108  22.8092937
  16.9870167  70.0770721  23.7228298  17.8334808  69.4831772  22.6174908
  77.8072433  45.3535385  44.8038216  78.1818924  44.9487305  45.5861244
  77.9190063  44.6961784  44.1170807  41.5509300  47.3393326  28.6774044
  42.4721413  47.1903114  28.8904667  41.2390747  47.9301109  29.3629417
  41.5371513  26.4076920  17.0775986  41.9026375  26.1803493  16.2226334
  40.6433372  26.6928501  16.8878269  31.5776615  52.5143433  81.8182602
  30.7101402  52.3266182  82.1765823  31.8553905  53.3119621  82.2687073
  78.2123489  70.1233139  53.4292870  78.3523865  69.2723465  53.0139809
  77.3836212  70.4341965  53.0648727  50.7519150  67.0484161  61.8942490
  50.0881004  66.3804932  61.7226219  51.5751953  66.6436157  61.6211739
  59.7451057  62.2326546  26.3489189  59.2942963  63.0639114  26.2005367
  59.9040413  62.2115021  27.2925949  86.8376007   1.9170197  26.9078617
  86.3508224   2.5912902  27.3818245  86.3888016   1.8451571  26.0654545
  78.0202484   7.0799074  47.5954781  78.2180099   7.8691111  47.0912170
  78.3606873   6.3625546  47.0609322  76.6787262  66.0771484  33.4758072
  76.3975143  66.5545502  32.6952705  75.8786316  65.9648666  33.9891052
  20.4857655  16.9453812  83.4665756  19.6470318  17.2029572  83.8492126
  20.4652157  15.9884014  83.4665756  86.0683060  50.6370277  18.8097038
  86.6265564  50.1400642  18.2116985  86.4407730  51.5187874  18.8080139
  82.4161758  64.5441895  81.8412399  81.6360397  65.0513382  82.0657730
  82.6676178  64.8627319  80.9743271  65.1688004   7.2031951  43.4962158
  65.4571915   6.4011097  43.9317818  64.2337265   7.2596340  43.6929131
  85.7252274  33.3102760  41.5618210  85.9372330  34.1691284  41.1962242
  85.5065765  33.4868164  42.4768372  58.0456810  44.6648979   6.1085701
  57.7655220  43.7640038   5.9469056  57.2398987  45.1293335   6.3349533
  36.7991447  61.0114670  63.3449249  36.7183228  60.4408836  62.5806389
  36.6944542  61.8963737  62.9953308  63.9909019  21.9262848  24.5589390
  63.7774773  21.9603710  25.4914188  64.6111374  22.6436443  24.4288158
   8.9535942  51.7923927  58.6077499   8.7008076  51.1871758  57.9105797
   8.2013321  51.8037148  59.1995316  79.6726685  41.2502747  85.5858002
  78.8140259  41.2554703  85.1627808  80.0472031  42.1063118  85.3780594
  84.8012619   2.3169174  69.5662460  85.3222275   1.7922946  68.9582977
  84.1545334   1.7048031  69.9173660   0.8814014  33.3648911  64.2004547
   0.3890203  33.3669281  65.0213013   0.3225991  33.8391495  63.5847855
  78.4600754  21.7103405  23.8210812  78.9070129  21.3314152  23.0641823
  78.8053207  22.6010323  23.8819332  68.0023651  30.4980850  61.6051865
  67.7826309  31.1912975  62.2276001  68.9460907  30.3748226  61.7073021
  59.6600494  54.5287704  19.9900112  59.0106125  54.6780968  19.3028698
  60.3195801  55.2077751  19.8478718  29.3637886   5.5910573   0.4140781
  29.3036442   5.2449508  -0.4763290  30.2566071   5.3853679   0.6912023
  39.1416397  24.8963890  21.9212513  38.6099396  24.5103359  22.6173038
  39.4137344  25.7450733  22.2704372  83.2378693  33.4498596  23.7541370
  83.4396133  32.5395088  23.5378189  84.0859909  33.8933449  23.7386112
  51.1788216  48.5026512  16.3961506  50.5220566  48.6813164  17.0691776
  51.2913361  49.3384781  15.9434214  61.4402466  15.6193399  48.3445129
  61.8082428  14.8165712  47.9752274  60.4961433  15.5328684  48.2125053
  86.1791229  66.5225906  67.5491409  85.3865585  66.5072098  67.0126266
  86.8376541  66.9371872  66.9917679  59.0188141  57.6608620  48.7258224
  59.7790413  58.0298996  48.2762718  59.3701897  57.3154716  49.5464783
  31.3041668  59.8230324  53.4996109  32.1205101  60.1348610  53.8902206
  31.0034122  59.1336021  54.0916100  21.1055107  62.2610283   7.8563619
  20.4137745  62.8925438   7.6590805  20.7092876  61.4081917   7.6777439
  40.2773781  44.8227997  33.2892532  40.2598648  45.5951843  32.7241440
  40.6286278  44.1272202  32.7333527  40.7514687  70.9508514   4.6666636
  40.3502235  71.7925949   4.8827758  41.0591316  70.6095581   5.5063624
   4.9753428  33.4415741  47.1776695   4.5797315  34.1184120  46.6284752
   4.5693026  33.5620384  48.0360718  20.5587273  37.9354095  14.8209076
  19.9662647  37.7731590  15.5550013  20.0542679  37.6864777  14.0464506
  24.8404789  58.9633141  48.3636398  25.5486259  58.8772430  47.7253990
  24.9650364  59.8329201  48.7437782  57.5448418  51.2532387  55.6293983
  58.3645706  50.7659302  55.5469131  57.7365761  51.9377136  56.2704620
  85.7581787  46.9690170  10.0502682  86.2836227  47.6929436  10.3909588
  84.8747864  47.3295593   9.9736843   4.2514319  23.4200134   6.2111502
   3.9911895  23.2464066   7.1157861   3.6713526  24.1261520   5.9263597
   8.6246986  37.2499199  67.5932159   8.6694937  37.4219551  68.5337677
   9.1912880  36.4897461  67.4615250   5.1421795  14.7725811  87.0859528
   5.4655232  14.2698021  86.3383560   5.8098726  15.4430475  87.2304916
  10.3021402  11.4360456  81.5041275   9.8155499  10.7667122  81.9852219
   9.6258373  11.9893208  81.1133194  59.7985077  50.0361176  79.1827927
  58.8931999  50.3204613  79.0571060  59.7366447  49.0895691  79.3110580
  70.8190765  54.7263832  33.5540581  71.6664352  54.5075798  33.9417801
  70.6767349  55.6428032  33.7910004  63.0747185  32.3142509  61.5143318
  63.4875793  31.4811230  61.2870102  62.4401360  32.0893097  62.1947289
  11.7990589  17.0587578  76.0557709  10.9075756  16.7664852  76.2456818
  11.8857574  16.9624786  75.1073837  23.3840275  47.4855270  31.6266499
  23.9366894  46.9521294  32.1978607  23.0525169  48.1806297  32.1951256
  53.8687859  42.9767113   3.3904364  53.5958176  43.8441505   3.0916624
  53.1284065  42.4073067   3.1810279  19.3688946  21.1799297  17.8025379
  20.0319176  20.5754356  17.4690475  19.0957165  21.6828480  17.0352840
  58.5964546  63.2762451  35.9538460  57.9697914  62.5527191  35.9478798
  58.2849007  63.8686028  35.2695389  42.4297791  57.4970856  40.9799919
  43.2932701  57.3478775  41.3651505  41.9783974  58.0554466  41.6130180
  27.8732319  52.2335510  71.7269592  28.3344097  53.0601006  71.8696594
  26.9795094  52.4934273  71.5034561   2.2025044  39.9930611  31.0610695
   1.3848031  40.1706619  30.5962524   2.6204898  39.2976151  30.5532589
  45.2457352  28.7419586  20.9880047  45.9834251  28.6480331  20.3853264
  44.5235939  28.2862225  20.5555153  75.9590073  45.9412537  21.0835304
  75.2229767  46.4837646  21.3666782  75.7193451  45.0539551  21.3509216
  70.0151672  53.4595909  79.1564713  69.7624969  52.5368538  79.1871872
  70.7727432  53.4811401  78.5717926  25.6505527  30.7340527  85.1795807
  25.0731335  30.4310150  85.8802872  25.1914902  30.5000458  84.3728943
  52.8847771  58.8277245   8.0572662  53.6691780  58.5890007   7.5633497
  52.8777466  58.2255783   8.8013096  83.1722031  64.4040222   5.9957533
  82.8607407  64.1947403   5.1151710  83.3209229  63.5520630   6.4059777
  74.4272385  56.5769844  35.0150337  74.1640244  55.6900864  34.7693520
  75.2889328  56.6908188  34.6140747  24.6124496  34.2725067  14.2151403
  25.4023781  33.9430695  14.6437607  24.9288235  34.6742783  13.4059944
  37.5751305   5.6057367  81.4876099  37.0082970   5.4637909  82.2457504
  37.0975647   6.2338786  80.9457626  16.8340912  30.4561291  62.9376717
  16.7609177  31.0984707  62.2317848  16.6098900  29.6214771  62.5261803
  15.6062193  67.3210449   5.3359747  16.0129890  67.2453079   4.4728208
  16.3424969  67.4158554   5.9402413  27.4916019  17.6723957   1.4248033
  27.4138184  16.9018497   1.9873345  28.2897129  18.1078854   1.7241333
  84.0860138  51.6363640  80.2372131  84.4088364  51.1818810  79.4590988
  83.4541092  52.2708664  79.8990860  67.5514984   2.5664451  55.2719994
  67.3158722   2.9142509  54.4119148  67.6693344   1.6277097  55.1266594
  17.7062092  37.9110489  87.4460068  17.5212612  37.6552505  86.5423508
  18.0471897  38.8028259  87.3774872  41.1681786   6.0195961  65.5485611
  41.3302994   5.6125798  64.6975098  40.6040154   6.7676563  65.3527145
  26.9756813  13.0341892  69.7867279  27.3951054  12.1738024  69.7937241
  27.6700363  13.6412201  70.0428848  54.6766205  47.8408623  24.3270130
  55.1954041  47.2167702  24.8345585  55.0070000  48.6990166  24.5928230
  51.4781036  51.9005508  26.5082378  52.0405693  52.6270332  26.7767315
  52.0466537  51.1313553  26.5445766  26.2309246  45.8995934   1.4107975
  26.6956367  45.1085434   1.1378272  25.9589443  46.3124657   0.5911664
  18.8196144  16.2993240  70.7557297  19.0085087  15.3659945  70.8529129
  17.8688240  16.3419056  70.6536560  76.7573395  18.0670223  27.8708839
  77.5626678  17.7909069  28.3084259  76.9746857  18.9139042  27.4812946
  68.5711594  66.3569565  17.5968800  68.7056808  65.6338654  16.9842815
  67.6481934  66.5890656  17.4944801  30.6026154  38.9211998  24.6429577
  30.4831314  39.8119659  24.9723377  30.1081657  38.3724022  25.2517052
  52.0287361  13.8161840  39.5281372  52.3190689  13.3036671  40.2826309
  51.9002800  13.1693687  38.8343353  41.1064148   2.2351201  76.8003464
  41.7524834   2.6759481  76.2485352  41.3240318   1.3057834  76.7281876
   8.5539570  43.0013962  68.1222534   7.9673362  42.2907295  68.3812103
   8.0821915  43.4601059  67.4270859  18.3013401  56.9830055  53.8188667
  19.1760483  57.0247955  54.2053528  17.8425388  57.7404785  54.1821442
  73.1034393  24.9410477  82.1573029  73.7923203  25.3176041  82.7049179
  73.4014282  25.0916634  81.2602234  57.4761276  45.6607094  12.0436277
  56.8893814  45.1684837  12.6178036  58.3458748  45.5305710  12.4215651
  75.2777176  49.4551353  36.4776306  74.5419083  49.6681633  35.9036598
  75.2484512  48.5020065  36.5608177  78.9317703  16.1362381  79.6058121
  78.9715958  15.3661547  79.0386963  79.4768829  15.9076862  80.3587036
  32.6558228  26.6444435  15.2048788  33.5428085  27.0035686  15.1820583
  32.7166939  25.8932095  15.7949419  28.9533138  55.2032127  62.0395012
  29.1425591  54.6337318  61.2937737  29.2149525  56.0761642  61.7467003
  58.6630745  49.3521538  60.3061638  58.1967812  50.1575584  60.0822792
  59.5773773  49.6213875  60.3944588  44.8889580  19.8407917  86.5025635
  44.8066826  19.3353977  85.6938400  45.3460846  19.2547722  87.1057663
  63.5165596  18.4196110  67.4365921  63.6695290  19.3245411  67.7084961
  63.9279404  18.3557148  66.5746613  71.2766953  51.4955559  17.1580524
  70.4103394  51.2987556  17.5143204  71.8276596  51.6307259  17.9290257
  71.2197723  24.1912270  40.8796692  71.2366562  24.0544662  41.8268967
  70.9376144  25.0997543  40.7738380  49.7918205   8.8596544  51.5918655
  48.8585205   8.9428883  51.7874527  49.8425827   8.1325970  50.9713478
  78.7529373  27.5951481  65.4799118  77.8856125  27.7693501  65.8454590
  78.5829926  27.3293056  64.5762024  37.9556656  29.3172894  15.1153154
  38.5424767  30.0616932  15.2485237  37.2818565  29.6468811  14.5206842
  33.0882835   1.8211778  74.0041351  32.6243782   1.7928517  73.1673431
  34.0018730   1.9793315  73.7662811  28.4696198  11.9898434   0.4953122
  28.2593384  11.6512823   1.3655937  28.6643295  11.2099962  -0.0244544
  47.8198776   0.0095100  62.7328758  47.7187653  -0.1939352  61.8030281
  47.3176270   0.8147127  62.8578758  10.1966782  71.4774551  55.2331543
   9.5825834  70.8569031  55.6256256   9.9057560  72.3335266  55.5473747
  74.1232376  50.3019066  20.7629871  73.2782440  49.8651466  20.8700428
  74.5651398  50.1777611  21.6029530  85.3716278  38.3727913  25.1745033
  85.5418549  37.5695267  25.6664581  85.3099365  38.0869255  24.2630730
  50.1079369  32.2469330  87.0272446  49.4422798  31.9081993  86.4285889
  50.0015869  33.1974983  86.9906082  31.2510490  -0.0665655  56.9827309
  31.1535416  -0.3644998  57.8871422  31.3768158   0.8796186  57.0544930
  22.0389271  45.0682449  86.4320602  21.4250488  44.7629700  87.1000366
  22.5401249  45.7591896  86.8652267   0.5406211  28.6431179  40.4854660
   1.2099639  28.3261108  41.0918655   0.3216036  29.5178928  40.8064575
  84.9572449  14.5726795   5.8596096  84.3122711  13.8918209   5.6681046
  85.6963120  14.1011887   6.2439423  20.6113892  50.9756126  35.8882446
  21.1098690  50.6335144  36.6303482  21.1315765  51.7134247  35.5700111
  30.1802731  58.2963104   4.8406086  29.6397457  58.9526367   5.2802677
  31.0734215  58.6322975   4.9156594  72.4358673  66.7811508  80.0323715
  72.5603714  65.8334503  80.0833282  71.6755905  66.8924866  79.4615707
   8.9886971  71.4871902  12.1880713   9.0106058  72.2241135  11.5775795
   8.9438276  70.7127991  11.6272345  48.8452682  36.9137383  71.8295059
  48.2132149  36.2003365  71.7411652  49.6982040  36.4793015  71.8304825
  26.0725460  62.0854225  55.4786987  26.7575817  62.7319412  55.3084946
  26.4466515  61.5100975  56.1459923  57.3080330  31.0146656  42.6222496
  56.8391037  30.1834087  42.5491295  58.1871109  30.8233109  42.2953949
  11.0626602  20.5036716  80.3689957  10.7376394  21.2388039  80.8887787
  12.0145607  20.5492840  80.4586411  64.8740311  58.8853264  48.0053482
  65.0890808  59.4975204  47.3016396  64.5167999  58.1195107  47.5557442
  39.2563629  29.8335419  64.0814819  40.1751823  29.9964371  64.2947083
  38.7704315  30.4499836  64.6293030  84.1731796  45.7167130  46.2137909
  83.5483551  45.0199547  46.4146576  84.8773041  45.2769508  45.7372932
  64.2711792  56.8092422  62.6823006  63.4668922  57.0574379  62.2264938
  64.3331146  55.8618927  62.5601463  28.0281773   7.0577054  83.0095062
  28.0324574   6.4582567  83.7557449  28.2693214   7.9057732  83.3821487
  33.5248032  24.7303009  21.8825188  33.1292686  24.3743248  22.6781750
  34.2441711  24.1309128  21.6838226  25.2893753  54.6068077   5.6492343
  25.0895844  54.7381210   4.7223721  26.0262127  53.9958305   5.6511979
  56.9338531   9.6990595  65.0122986  56.4750175   9.0673809  64.4585114
  56.3551483  10.4611263  65.0365143  45.8009529  25.4286194  57.5485802
  44.9360428  25.7515316  57.2958145  45.6974983  25.1549416  58.4599686
  69.9570770  47.6648331  69.2092361  70.5041504  47.4123306  68.4654694
  69.9515839  46.8930779  69.7754517  80.2390289  23.2275639  54.7553520
  80.8134232  22.4618626  54.7529678  80.3882828  23.6415901  53.9053307
  77.9074249  67.8344193  72.6405716  78.7194672  67.6098633  73.0948792
  77.8718567  67.2288055  71.9001694  53.7594833  39.2976456  22.8457470
  54.3977928  38.7057571  22.4476700  54.2893448  39.9295464  23.3317356
   2.4492242  45.4075203  25.6675835   2.6340222  44.8940239  26.4539700
   1.9538596  44.8129768  25.1042309  35.6338997  62.9273987  79.2277908
  36.0070686  62.8902016  78.3471146  35.9079132  62.1075363  79.6388550
  77.1167450  37.7520294   6.2452083  77.2808990  36.8106194   6.1901393
  76.9633179  37.9143562   7.1759825  58.3434639  11.6160059  61.2582169
  57.7549591  12.2283297  61.6997528  58.9223671  12.1731462  60.7379303
   6.3301649  49.8083992  20.2969475   6.3796506  49.1388168  19.6147137
   5.4583869  50.1902771  20.1949577  17.3819885  69.4270477  55.0222511
  16.4580040  69.5486984  55.2406158  17.7150650  70.3142471  54.8874512
   4.8279142  64.9562683  28.1471767   5.4305973  64.8734665  28.8861961
   4.0681958  64.4305878  28.3976173  37.0702667  56.8126183  10.3980522
  37.6109772  56.1676445   9.9421234  36.5288391  57.2002487   9.7104273
  81.7226181  46.9065514  85.2534866  81.0282516  47.4138947  84.8331451
  81.2585449  46.2712479  85.7987061  55.6306267  52.1283035  12.9211187
  55.5429993  51.5333061  13.6657858  56.5507469  52.0593719  12.6664448
  18.4699001  54.4954796  41.8890610  18.9786110  54.7785912  41.1292648
  17.8521099  55.2101326  42.0434608  51.6393013  66.4477081  46.2040710
  51.9354134  67.0501633  45.5217247  51.0203094  65.8682709  45.7598457
  39.8830261  59.4224358  74.8616257  39.5095978  58.5520439  74.7230606
  40.5021248  59.3055038  75.5822296  62.7328911  58.5826645   7.6717849
  63.6692772  58.6166000   7.4761839  62.4021912  57.8619270   7.1356826
  71.5628586  36.8963280  88.1116257  71.9209442  36.0335846  88.3206406
  70.6161346  36.7601166  88.0744476  12.7095299  33.9320107  65.9269867
  12.7552958  33.8335991  66.8780136  13.1457138  33.1519585  65.5842056
   5.6009836  29.2881107  18.4103260   5.6260018  29.1246490  17.4675198
   4.8314824  28.8080330  18.7163086  32.0539246  11.2599068   6.1965795
  31.2390194  10.8254213   6.4483356  31.8004265  12.1683559   6.0332055
  26.5520802  64.5921478  17.9376621  26.2256222  64.4886169  18.8314953
  26.0625553  65.3369904  17.5886517  45.1930695  60.1962891  19.5946236
  44.3102875  59.8486099  19.7213192  45.7280617  59.4266205  19.4006500
  77.8030548  66.9592514  28.1239738  76.9447708  66.5480347  28.2263699
  77.9140091  67.0495071  27.1775208  69.9399033  29.2019539  19.5039577
  70.4507523  28.4227657  19.2845726  69.8874893  29.6927338  18.6838245
  69.1220474  68.8728409  54.6783867  69.3542099  68.8721695  53.7497673
  69.2885742  67.9756851  54.9675446  47.4435616  48.1426392  66.8779144
  46.8633842  47.5364761  67.3385544  46.8746986  48.5883522  66.2502518
  43.1489944  53.9264832  50.1110191  43.8922234  53.3608856  49.9014053
  42.5295029  53.7829247  49.3955765  54.6952667  71.4269104  82.8490906
  54.7662582  70.6288834  83.3728638  54.3550301  71.1299896  82.0051041
  64.5863876  12.6242628  48.2746124  63.8801308  12.8802233  47.6813889
  64.8348923  13.4366045  48.7157211  78.8223114  30.0714951  29.9568062
  78.7901077  30.1052170  29.0007439  79.3507614  29.2975025  30.1515026
  58.6476707  61.7602119  19.6710606  59.4295464  61.6926804  19.1230278
  58.9375114  62.2463455  20.4430065  10.8001680  19.4437332  74.1084976
  11.1860199  18.8791504  74.7782745  11.2994032  19.2498322  73.3151550
  81.2016373  53.0986786  70.7881622  81.7255936  52.3104019  70.6456223
  81.7615204  53.6657867  71.3183975  79.3345642  61.9233627  15.7875967
  79.9501572  62.6128387  16.0363941  79.3156738  61.9528847  14.8310385
  19.0340672  54.6445847  57.9095764  18.2482414  54.1717606  58.1837006
  18.7607098  55.5610886  57.8704491   1.2826810  66.8820496  84.1730347
   2.1896291  67.1092911  84.3780670   0.9843906  66.3796234  84.9312134
  12.1895475  47.6975479  67.4226913  12.2186785  46.7495117  67.2938156
  11.9927034  47.8068542  68.3530350  61.7651711  56.8897171  84.6218109
  62.0477448  57.6285858  84.0828705  62.5702782  56.5665627  85.0262909
  65.7754288  57.5253716  54.7898750  65.7581100  57.4083099  55.7397308
  65.4389114  56.7001190  54.4406662  56.3254356  31.1374359  69.5293198
  56.0862007  30.6895008  70.3407059  57.2810211  31.1864223  69.5555573
  46.4389191   2.7262788  51.0262222  46.8214607   2.3915792  50.2151299
  47.1122169   2.5738990  51.6893082  60.7652054  69.9496307  46.4865990
  60.8695183  70.8140182  46.0888748  61.4993057  69.4388275  46.1454163
   7.1865835  63.3067741  26.8502655   7.4752488  64.1482925  26.4970684
   6.2720771  63.2334518  26.5772552  62.8278885  28.9466648  47.7794075
  62.0079536  28.6404724  47.3918724  62.7098808  28.8199348  48.7208138
  49.3621597  70.0213318   9.9883308  49.4418526  70.2707443   9.0676384
  50.2600479  69.8396378  10.2658405  70.1065598  45.5112076  43.0546570
  69.2175598  45.2568398  43.3020744  70.2603760  45.0649490  42.2219353
  61.8730545   7.0764813  14.5258560  62.2227135   6.2136140  14.3035231
  61.5057755   6.9673290  15.4030237  29.2868843  49.1287079  14.4956188
  28.3563347  49.2657928  14.3180838  29.3164425  48.3209419  15.0083275
  85.9443436  49.7352562  24.8317738  86.8801651  49.8548050  24.6699715
  85.6395874  50.5951767  25.1214180  39.5345535   9.2391939   0.6051908
  39.1673508  10.1136627   0.4759746  39.3512154   9.0355568   1.5223335
  22.8767414  41.8465462  87.6490860  22.2909298  41.2522469  87.1801910
  23.4074802  41.2729950  88.2018890   6.9842515  53.0289497  85.7370453
   6.1556158  52.6623993  86.0456543   7.0266533  52.7809944  84.8134918
  80.9363480  32.2268715  59.0423660  80.4597092  31.5585575  59.5347137
  80.3177185  32.9530411  58.9635353  24.5372467  61.2624092  86.6497116
  25.0790882  61.0074997  85.9029388  23.7730427  61.6851616  86.2579193
  44.6645164  42.6228867  41.7914505  43.8841248  42.9686890  42.2246246
  45.1432610  43.4003410  41.5040436  30.4687328  38.1958046   0.3722028
  31.3581524  38.3438454   0.6935275  30.5532532  38.2086945  -0.5811712
  31.5554485  63.8066101  64.2618866  31.9232826  63.2264442  64.9284744
  32.3090553  64.2891235  63.9220581  47.7317429  39.1337166  57.4904099
  46.9894829  39.7371368  57.4562569  48.4435463  39.6507149  57.8676109
  65.2419739  42.9698105  83.8045273  64.3746033  43.3455124  83.6537094
  65.0823135  42.0314140  83.9052582   2.0767043  53.5899010  35.9502754
   2.6574790  53.3621140  36.6762543   2.0205698  54.5450211  35.9790688
  72.7645874  64.7776337  84.8945389  72.1281738  64.0728683  85.0149689
  72.2517090  65.5063477  84.5450058  68.0102692  21.3338146  73.7197723
  67.1625061  21.7758694  73.7658157  68.5499344  21.9068775  73.1751709
   3.7374368  62.4710350  41.7586021   4.0208240  63.3672981  41.5779572
   2.7819660  62.5085640  41.7150230  56.4804611  31.1748371   8.4875488
  56.6852608  32.0299263   8.1092491  56.7110710  30.5481071   7.8017941
  57.7037964  14.3595705  64.6359940  58.2123795  13.5748167  64.8402939
  58.1716537  15.0694246  65.0758286  14.6512461   2.8878853  79.7876740
  13.8985271   3.4748995  79.7165298  14.5971603   2.3336263  79.0091476
  25.6774387  14.4146929  15.0077343  26.3500671  14.1881142  15.6499681
  25.1906548  13.6014862  14.8736849  52.1548920   8.0197144  52.2912178
  52.4552345   8.4075537  51.4692650  51.2425613   8.2988501  52.3684807
  32.4846535  47.3016510  73.6501694  32.8659286  46.8534966  74.4051666
  33.2323570  47.7023964  73.2067947   9.9168434  18.6613483  84.1694794
   9.9495792  17.7780228  84.5367584  10.3074713  18.5738468  83.3000031
  36.0364456  55.3677597   5.7337389  36.9496841  55.0827560   5.7021127
  35.5322952  54.5787888   5.5347776  16.2031841   8.0906563  19.7537975
  15.4170084   7.5473890  19.8087559  16.8530941   7.6254430  20.2805099
  60.2543259  45.4974899  81.4159241  60.1515198  45.8028183  82.3172760
  59.5700531  44.8370399  81.3072433  73.2923889  31.9002018  83.5825806
  72.8584518  31.4011040  84.2745590  74.1841812  32.0309677  83.9048309
  12.3634624   8.7120867  70.4761887  11.4742279   8.6607933  70.1256714
  12.8724442   8.1165800  69.9261551  13.5092268  11.3442125  15.9211903
  12.6767378  11.5348024  16.3534737  14.0662766  10.9957399  16.6172466
  65.0546951  33.8239403   1.6087581  65.5840836  33.4917908   0.8837363
  64.7599792  33.0384598   2.0696273  76.9158859  12.3165398  20.4730740
  77.4053268  13.1266403  20.3302021  76.5233307  12.4235153  21.3394966
  74.2153091  29.9708424   9.3009281  74.0643234  30.3635502  10.1607046
  73.8190079  29.1016541   9.3616886  31.0572758   7.8052425  13.3863192
  31.2113571   8.6754932  13.0186863  31.4443741   7.8427467  14.2609501
  27.3931313  63.2507820  14.0921240  27.7422924  63.1940308  13.2026873
  28.1202278  62.9798203  14.6526060   2.2211695   7.8638926  52.5720329
   2.1326900   8.6317701  53.1366272   1.3373820   7.7084460  52.2388840
  49.0395699  68.2531204  82.6257782  48.7459221  68.5992584  83.4685059
  49.9607620  68.5072098  82.5703583  52.4881439  67.6344299  77.5827484
  52.6804581  67.9189148  76.6892624  53.3456879  67.4455566  77.9637833
  25.9317226  53.9183617  70.8573990  25.6976547  54.8414841  70.9537811
  25.2217522  53.4447365  71.2908173  68.1032104  50.7028542  81.2004623
  68.7365341  50.5279427  80.5043716  68.5796738  50.5179214  82.0097885
  31.2119160  46.9898033  45.1591301  31.8317451  46.2732277  45.2953835
  31.7421875  47.7830009  45.2358131  19.0359993  21.3365326  23.2186966
  19.4316521  21.1229095  22.3736782  19.2791862  22.2493591  23.3731041
   8.7308512  54.7393684  25.8046761   8.5071678  53.8110237  25.8708210
   9.2873297  54.7969017  25.0279827  26.5465374  56.2775726  30.1900177
  25.7902088  55.7741127  30.4912319  26.2279911  57.1785316  30.1349392
  14.9650087  28.0428867  10.6498022  14.6521597  27.8002186   9.7783270
  15.2606354  27.2185841  11.0362797  73.5809174  20.0084267  16.7535992
  74.4689560  19.7631855  17.0133438  73.0181198  19.3712711  17.1935196
  74.3036652   6.0807676  57.3685684  73.4902496   6.4231224  57.7392082
  74.0895462   5.8913512  56.4550552  25.2765617  10.5402479  13.4649057
  26.0253925  10.9591589  13.0406446  24.7601833  11.2676191  13.8120604
  39.6957169  55.5018311  70.0031815  39.5176849  56.2211533  69.3972855
  40.6425285  55.3719749  69.9491959  52.0704575  17.7771778   7.8435020
  52.4548378  18.5895271   7.5140028  52.7913971  17.1476955   7.8283854
  10.2035189  23.7405510  15.5690241  10.1663256  22.8303299  15.2751799
   9.2920303  23.9720936  15.7473736  49.5889778  36.5121803  38.9693222
  48.6368904  36.6087036  38.9905090  49.8198433  36.2205925  39.8513107
  77.6519470  56.1091995  48.4096298  76.8610001  55.7083549  48.7701187
  78.3718109  55.6418686  48.8334618  74.2430649  28.9257317  64.0869370
  73.5245972  28.3960609  64.4326019  74.5483780  29.4345703  64.8379974
  53.7145996  18.1189861  42.9971924  52.8928833  17.9775257  43.4673004
  54.1571846  17.2708073  43.0279007  57.8107910  44.0922127  28.6562977
  56.9241524  44.0359764  28.3000164  57.8619766  43.3730545  29.2859173
  57.0515327  65.5597916  56.8170433  56.2203255  65.9398651  57.1014214
  56.8668823  65.2027588  55.9483299  19.0444946  43.9612808   4.3242607
  19.9719257  43.8296089   4.5211492  18.6143970  43.1747131   4.6597638
  29.3830891   1.4999970   8.6965733  28.7016182   1.4826080   8.0246172
  28.9057579   1.4332538   9.5235748  73.4668045  33.3418884  36.4373894
  73.7447357  33.6037102  35.5596428  72.8175278  32.6546135  36.2879868
  59.8677979  50.9608688  16.3523903  59.6685600  51.7915039  15.9204454
  59.5390434  50.2930527  15.7505789  79.7948227  69.3325424  19.2358017
  80.3558884  69.6752472  19.9314957  80.3936996  69.1559448  18.5102711
  86.3869095  71.7694702  17.9719677  86.9688644  71.2229233  18.5000343
  86.7592773  71.7341309  17.0908756  35.1242294   3.9682226   0.5133868
  34.5343895   3.2499394   0.7422799  36.0016556   3.6004469   0.6187258
  52.5599098  12.3875465  19.7361622  52.4832764  11.8028955  20.4901810
  51.7979317  12.9632311  19.8010406  73.9650574  61.9777870  82.9179001
  74.0824203  61.9167442  83.8659134  74.7789078  62.3691139  82.6005020
  44.0133667  11.7017174  18.4423256  44.9379158  11.8866806  18.2773037
  43.5712051  12.5369978  18.2905693  48.2372017  68.3846817  34.2061920
  48.2294655  67.6542053  34.8247185  47.4405899  68.2685089  33.6883659
  54.7389832  49.9878731   3.6456409  55.6171875  49.6322594   3.5095015
  54.5552177  49.8245888   4.5707359  14.4191074  63.9277954   9.8864403
  13.7944946  64.5314941  10.2884827  13.9642048  63.0856895   9.8739538
  71.0025406  62.9782906  20.9736309  70.0730286  63.1977959  21.0373020
  71.2893600  63.3854980  20.1562252  18.6052475   6.4955311   0.2486781
  18.4497223   6.0257068   1.0680127  19.4393501   6.1509876  -0.0703752
  54.3229523  33.2211113  28.0816612  54.4043427  34.1714363  28.0011253
  55.1650696  32.9379311  28.4378605  54.9017792  68.0702209  30.0319195
  54.9267464  67.1159515  29.9613743  54.2065811  68.2453918  30.6661472
  82.8210220  60.4759789  29.5759525  83.7746887  60.4121704  29.5240707
  82.6234970  61.3624725  29.2737217  78.9438705  25.6633205  42.7869186
  79.6347961  26.2814713  42.5487289  78.7532959  25.8589516  43.7043304
  15.2259588  57.5571098  77.2407608  14.5036793  57.0571404  76.8605270
  14.8855200  57.8701172  78.0788269  76.2605209  22.0027981  82.6404419
  75.8257828  22.0911083  83.4886398  76.5396957  22.8916206  82.4207001
  70.0987473  34.6356888  27.2015533  69.7968826  35.3927422  27.7035313
  70.4407501  34.0319977  27.8609619   0.3557777  58.8208771  11.2743549
   1.1222507  59.0967445  10.7717133   0.1827638  57.9278069  10.9764938
  12.4596786  40.0299988  38.6623878  12.2705774  40.8335228  39.1469727
  11.7167606  39.9286804  38.0673752  72.7893295  70.7359467  29.9036274
  73.5333710  70.6854172  29.3035679  72.0208511  70.6421890  29.3407078
  47.8746300   2.5679212  73.1979446  47.7175789   1.7044384  72.8158951
  47.8052940   2.4281824  74.1423492  81.5423050  44.8913040  18.7609062
  82.4594955  44.9843025  18.5033379  81.0533218  44.9841919  17.9432888
   6.2073989  38.3210716  27.8993225   6.5405397  37.9957314  27.0630207
   6.3852911  37.6139183  28.5194206  13.4943666  11.5105572  13.2720594
  13.5855684  11.4662971  14.2238770  12.6082306  11.1914587  13.1012630
  28.1834412  61.9655647  20.6236801  27.5763988  61.2262573  20.6576939
  28.5581894  61.9274788  19.7437115   0.7408543  16.7065086  11.8521385
   1.6401850  16.4849415  11.6105938   0.6178561  17.5978737  11.5256853
  73.5133514  19.0394974   6.2250414  73.3776016  18.2416134   5.7139788
  72.8700256  18.9837017   6.9316239  47.7752419  24.4155254  34.5541649
  47.7554932  25.0403080  33.8292580  46.9915237  24.6170292  35.0654488
  15.8506508   3.0294032  85.0109482  15.6254759   3.7529454  84.4261322
  16.5853500   3.3593168  85.5282593   2.0722735  10.5577965  78.1833649
   1.8798279  10.8951683  79.0582275   1.2842559  10.0749235  77.9341812
  59.8062363  49.8252983  88.0237579  60.4223709  50.1221657  88.6934509
  60.2444000  50.0150757  87.1941681  19.6880398  45.7640495  36.5761452
  19.2051849  46.1533546  37.3052025  19.1791935  45.9978333  35.7998390
  48.5301247  14.9772453  18.6234131  49.1021156  15.0823593  17.8631458
  49.0839195  14.5612812  19.2841072  62.3569298  45.2290344  83.5098038
  62.1128845  44.8893814  82.6488113  62.0946693  44.5412827  84.1217270
  59.1191177  33.0129356  77.0807953  58.9184532  32.4121437  77.7984390
  59.8459244  33.5428391  77.4081879  41.3223648  37.9397659   9.7663364
  40.9200859  38.5250587   9.1245928  40.6913300  37.9024467  10.4851122
  52.9296761  58.9641609  75.7594147  53.1895485  59.7669601  76.2113113
  53.4356499  58.2736855  76.1877441  81.8391800  31.0025578  33.9903755
  82.4449005  30.8443432  33.2662888  80.9866791  30.7259483  33.6542892
  47.7029839  10.5071087  72.3641891  47.2805634  10.2652836  71.5399857
  48.6209602  10.6458454  72.1311646   2.6254339   4.9455390  78.0154800
   3.4162536   5.1375766  77.5115356   2.8368304   4.1460280  78.4974823
  56.1249428  35.5559464  53.8910179  57.0296669  35.2552109  53.9762611
  55.6268501  34.9858818  54.4768181  65.2067795  18.9902706  74.7327042
  65.4037704  18.0912647  74.4696198  66.0643845  19.3965740  74.8578644
  10.9867678  50.3603020  64.9489365  10.0459633  50.3713646  65.1249924
  11.3876772  50.6413727  65.7714310  33.5081711  13.6595831  80.1460190
  33.8948288  14.2672338  80.7764893  33.3439064  12.8630695  80.6508179
  68.4090652  71.8899612  39.2522049  68.4771729  71.0131683  38.8742867
  68.8613586  71.8240662  40.0932274  59.4048233  68.8809662  82.0484238
  59.5510559  69.7902603  82.3092422  58.4559593  68.7663727  82.1009369
   1.0698903  49.3813477  17.0281334   1.7859149  49.0840721  16.4667358
   0.8004768  48.5979805  17.5077038  29.1551056  41.0781975  81.6333160
  28.4322987  41.4810944  82.1144180  28.7672615  40.8068123  80.8013611
  63.8237724  58.3065948  27.0670662  63.2087631  59.0205765  26.8990593
  63.5109329  57.5870132  26.5188313   8.6572638  13.6837406   8.8433418
   8.6185369  12.9653053   9.4746761   9.4352322  13.4986372   8.3172865
  30.5438519  69.5597992  52.8204575  29.7949257  69.7932434  53.3689499
  30.1892128  69.5275574  51.9319611  18.4675465   6.1705160  76.8986359
  18.3915977   6.4412427  75.9836655  17.8349934   6.7180595  77.3637238
  43.7869186   6.5418324  33.9260292  43.0037270   6.0919046  33.6091614
  43.7227249   7.4228191  33.5572853  57.5169678  61.2771034  17.0083942
  57.7340240  61.1412201  17.9307041  56.6081657  61.5774689  17.0179520
  78.4741669  68.3655624  42.0367088  77.5995407  68.6843414  41.8138847
  78.6733932  67.7194061  41.3591995   4.9836960  67.4631119  63.6983185
   5.8745980  67.2721024  63.9916496   4.6790195  66.6436844  63.3085213
  60.4580917   4.8002787   3.7718616  60.8522758   5.3039937   3.0597379
  60.8961639   5.1183376   4.5612674   1.3469700  64.9023819  69.1817017
   0.7657227  64.4813461  69.8150406   0.7565041  65.2931747  68.5375977
  70.1916046  51.5038910  28.3467102  69.4258499  51.7765503  28.8521843
  70.7012177  50.9678497  28.9543247  82.4890823  55.8147736  40.5715370
  81.7147751  56.3653755  40.6877785  83.2273254  56.4168358  40.6650505
  13.0653276  54.8020325   3.0277767  13.0471601  53.9804726   3.5186334
  12.5984058  54.6060944   2.2154820   9.1458101  40.9886169   5.4431858
  10.0495691  40.8047028   5.1870093   8.6901073  40.1546059   5.3292155
  64.1462250  52.7130318  31.8321762  63.7416840  53.5391922  31.5675297
  63.4172668  52.1805458  32.1504745  30.9243164  61.3887177   9.3835382
  31.6335812  61.4330940   8.7422838  31.2907410  61.7855072  10.1738043
  25.7719326  52.0651932  22.2053185  25.9248257  53.0098267  22.2281494
  26.5511990  51.7066345  21.7805691  25.4788742  24.6337872  70.0404510
  25.2200623  23.8738270  70.5617065  25.1174870  24.4620991  69.1708832
  75.9051056  39.4657898  76.2079391  75.2323151  38.9396057  76.6400452
  75.9645615  39.1005440  75.3251648  66.4687958  69.2476120  37.0901146
  65.7544479  69.8409958  36.8580894  67.0581055  69.2759552  36.3363647
  61.7762756  67.0367584  84.4369049  61.1707611  67.1587753  85.1681366
  62.6455307  67.0967636  84.8331757  53.3242455  19.9278088  47.3454552
  52.3963966  20.0098095  47.1249847  53.4920998  20.6521168  47.9483109
  39.7205086  26.8696728  55.2875633  39.6119041  27.7628326  55.6142159
  40.1136665  26.3933449  56.0188408  83.8241577   0.6974197  46.5565567
  84.0854874  -0.0725635  47.0615997  82.8702927   0.7213606  46.6326752
  17.0572109  56.0560265  15.1212683  16.3104897  56.2546272  14.5562935
  16.6648998  55.8084488  15.9585428  36.7372208  56.0557251  84.4724884
  37.6784210  55.9203873  84.3627014  36.5134239  55.5562935  85.2578049
  10.2022924  45.4327583  67.5695496   9.7870369  44.6251640  67.8721771
  11.0348835  45.1474991  67.1931839  59.0456467  32.5583038  34.6413345
  58.1896439  32.1729736  34.4542198  58.8787041  33.1802177  35.3495598
  28.7865238  29.6450806  70.6957245  28.3535900  28.9210835  70.2433624
  28.0812588  30.0895767  71.1661072  83.4897690  52.4476280   0.4067239
  84.1649933  53.0801468   0.1613097  82.7760239  52.9821281   0.7547237
   8.5390329   7.6465540  27.4880943   8.5400944   8.2719946  28.2126999
   7.7355347   7.1407051  27.6094990  48.8522072  41.1513939   5.0694442
  48.8720856  40.7707977   4.1913886  48.3133888  41.9372063   4.9777312
  49.1909294   2.1761928   8.3300714  49.5740051   1.6826142   7.6049061
  48.2459412   2.1060748   8.1947460  64.3256836   3.0994830  20.2506866
  64.3074112   2.1963553  20.5673218  65.1737747   3.1833777  19.8148708
  48.1073723  54.3057175  65.7180252  48.9351883  54.4049644  65.2478104
  47.5835724  55.0579071  65.4422073  38.6003571  42.2127495  31.9458179
  38.3880272  41.7157135  31.1558151  38.5841713  43.1276169  31.6647739
  18.3920288  61.8008041  58.2892303  18.0860424  62.3493996  57.5669785
  18.1130886  62.2658043  59.0780258  64.4316788  35.6108055  24.8464451
  63.8361435  35.3487663  24.1443710  63.8715019  36.0567589  25.4817142
  81.8474197  30.4859638  29.5248489  81.1332169  30.9799824  29.1222515
  81.4118271  29.7738209  29.9931908  85.5539246  63.6166763  65.0715866
  86.2164307  64.2896957  65.2276993  84.7584763  64.1071320  64.8643570
  39.5392647  42.0856552  57.6346321  39.6198158  41.1336212  57.6927528
  38.5995560  42.2411652  57.5397568  76.1757126  43.6788177  49.5397491
  75.3316803  43.7268143  49.0908127  76.7763672  44.1626549  48.9728737
   2.3876452  28.4296608  72.1835480   2.6317544  27.5070076  72.2567215
   3.0733771  28.8163834  71.6390762  53.3683243  15.0698166  51.6452560
  52.7520409  14.4020061  51.3445015  53.2225800  15.8118868  51.0584679
  79.3343964  26.8096104  31.2821770  79.2078323  26.4687309  30.3967304
  80.1517715  27.3053436  31.2334156  64.6903839  27.9283752  88.9843979
  63.8870697  28.2893105  88.6093826  65.3941650  28.3308430  88.4755325
  61.1130409   3.4669943  47.0032005  61.7451019   3.2705038  47.6946602
  61.4985085   4.2034440  46.5285568  51.7308388  67.3887939  51.3214302
  51.4490929  67.5843201  50.4277725  51.3891411  68.1140518  51.8443794
  82.4008484  32.8368225   6.1181741  82.4743500  32.7495918   5.1677952
  82.6506348  33.7436867   6.2954850  75.0653381  22.0855656  38.5142365
  75.0839996  22.9081516  38.0251198  74.1402359  21.8407459  38.5359383
  30.5040340  43.5576401  62.7586899  29.6955662  43.3014526  62.3148651
  30.2723389  43.5750389  63.6872597  24.4020729   1.2493541   7.6802440
  23.8707123   2.0438442   7.7319489  23.7940807   0.5736915   7.3801484
  49.6725082  56.5064964  71.1986847  49.5987625  57.2657814  70.6205139
  50.4117126  56.7121391  71.7709808  48.1104927   3.1165602  88.0341415
  47.2018089   2.8751531  87.8545609  48.6159592   2.6678042  87.3563843
  51.6813583  41.1216278  74.4446106  52.0213890  41.7895088  73.8491745
  52.1563683  40.3251457  74.2075119  77.5065308  35.0999603  18.0385704
  77.7204285  35.6011810  17.2516403  78.3198318  34.6478500  18.2630062
  35.1265678  55.3655243  74.1363297  34.4435577  55.8097687  74.6387024
  35.6895142  56.0722733  73.8203659  56.2174721  46.2017059  54.5135002
  57.0835457  46.2288818  54.1067963  55.8417587  45.3711128  54.2216301
  48.6948166  29.5071983  37.9615517  47.9924088  29.4037094  37.3195648
  49.0987091  28.6411171  38.0163689  44.4159431  46.4427910  29.4755707
  44.2764854  45.5750351  29.8547554  45.0268822  46.2934875  28.7539768
  13.2788153  63.2660713  67.4346466  12.5369873  63.6592522  67.8943558
  12.8950319  62.8786621  66.6479721  43.5502396  29.2930107  40.7379799
  43.6964264  30.1876011  41.0455055  43.5987587  28.7567577  41.5293770
  30.7979546  31.4676781  44.4777374  30.5140114  31.1653214  45.3404007
  31.7321377  31.2612915  44.4471283  64.5081253  15.8446140  29.8166828
  64.6412582  15.7139940  28.8778286  65.3142776  15.5226068  30.2199917
  37.3453331  25.1196957  -0.0331865  36.6900330  25.2129250   0.6582791
  37.0875244  24.3260155  -0.5020572  64.1358337  57.5841446  68.2500534
  63.7767792  58.4139519  67.9358444  63.4796715  57.2569313  68.8653717
  56.6766472  55.2465401  51.1615753  56.2236023  54.6110458  51.7157631
  57.4700928  54.7932053  50.8766823  68.3948288  51.2340393   5.8864756
  67.6100616  51.6884575   6.1928644  68.7263870  51.7818375   5.1749835
   3.6772332  39.4214363  26.7665577   4.2570639  39.3291359  27.5225391
   3.9181447  40.2639542  26.3813858  73.9344635  50.2869263  55.9811974
  73.5605850  49.9803429  56.8073044  74.7057037  49.7358055  55.8481903
  78.2927094  12.2716732  75.3378983  78.9234772  12.6412592  75.9557648
  78.8253555  11.9777298  74.5988998  54.0691910  25.6865253  68.8092422
  54.7162018  24.9894257  68.9172287  54.2397804  26.2862434  69.5355072
  68.6998138  65.2412415  72.8890076  67.8760529  65.6287231  72.5931854
  69.3759460  65.7241211  72.4137115  59.4083328  17.3264542  69.6195450
  58.8241158  17.5788937  70.3345261  60.2708931  17.2561016  70.0285339
  26.2287655  64.1056442  20.4633427  25.5500546  64.5210648  20.9953251
  26.7384338  63.5881271  21.0867577   5.4996061  33.8501434  74.9488907
   6.2835531  33.8937798  75.4963913   4.8018670  33.5892868  75.5500107
  81.8536758  50.6734428  29.2269306  82.0217209  51.4534645  29.7556610
  81.4506149  51.0091019  28.4262409  69.2486649   1.9399403  82.3079758
  68.3810577   2.1946132  81.9939194  69.3747025   1.0530770  81.9706039
  66.7621002  18.8326225  57.8947258  67.3274002  18.1768570  57.4865112
  66.0711212  18.3230896  58.3179855  82.8737640   0.8508124  21.5141258
  82.5200653   0.9764401  22.3946609  82.3111191   1.3832039  20.9517918
  42.6141624  23.4981918  60.1001663  42.5991440  22.9572964  59.3105850
  41.7318649  23.8651714  60.1559105  84.0152664  24.9763222  36.6320038
  83.7599945  25.1646996  37.5350990  83.5050278  24.2017612  36.3954811
  68.8201981  49.8427811  26.6466084  69.0539169  50.4314423  27.3643036
  69.4311142  50.0667000  25.9445610  55.3304024  21.8192978  59.2297363
  54.4914894  21.4481392  59.5030403  55.9783707  21.1652260  59.4915771
  55.2902641  58.4382935  80.7246170  54.9952011  57.6340370  81.1516266
  56.2299309  58.3098679  80.5951385  50.6399498  54.7114296  41.2329102
  50.1680069  55.5441933  41.2345009  50.3346405  54.2615967  42.0207367
  65.0150070  21.6229286  38.9644775  65.6800766  22.3108749  38.9898567
  64.5006943  21.7575150  39.7604713  79.8362732  23.6599541  52.1292610
  79.7518082  22.9439297  51.4996529  78.9486389  23.7920437  52.4622536
  46.9812584  69.4946365  37.9692688  46.5321808  68.9365692  38.6041946
  46.5057602  69.3561554  37.1501503   0.7112951  34.3129158  19.9464226
  -0.1739966  34.4453659  19.6073856   0.6966596  34.7114983  20.8165665
  10.5206976  68.2004013  87.8687820  11.0539503  68.9948730  87.8951035
   9.7191238  68.4648056  87.4173431  59.2837486  53.5814934  76.9693985
  58.8508453  53.7621269  76.1350098  59.6637917  52.7100220  76.8583221
  40.3837242  70.1372910  52.7064247  39.4504089  70.0474930  52.5138397
  40.6562424  69.2626953  52.9839935  41.5665741  57.9837074  35.4381294
  41.7376060  57.3538284  36.1382942  41.9903679  57.6060410  34.6674156
   0.3360336  59.3524284  78.6062698   1.0457100  59.6086998  78.0172729
   0.7748429  59.1295090  79.4272308  46.3858109   8.4390430   7.1784644
  45.5351219   8.2664814   7.5819292  46.9592628   8.6579370   7.9129515
  85.9182053   2.6621466  88.6986542  85.6073990   2.9910071  87.8551636
  86.5300446   1.9617918  88.4719467  52.8993301  33.8082848  73.9605026
  51.9520912  33.8298225  74.0965424  53.2592697  33.5801620  74.8176117
  85.8006287  47.4611740  37.7277527  86.7405243  47.5749245  37.8687668
  85.7316360  47.1221809  36.8352547  34.3714180  39.7357521  63.0116272
  35.1497612  40.0306320  63.4843445  33.6707344  40.3088303  63.3228455
  57.2110100  62.3063240  83.8467331  57.3897858  61.6106377  84.4794159
  57.4611740  61.9319611  83.0020370  52.6502838  15.2073193  21.6176128
  53.4452858  14.6857367  21.5073795  52.8410225  15.7807026  22.3599625
  11.1887236   4.1949782  29.3190994  10.3241806   3.9054301  29.6105747
  11.6898155   3.3860557  29.2152596  79.7173462  39.8219948  27.6716805
  79.3729782  40.6766167  27.9310246  79.7743759  39.8663559  26.7172108
  65.5634918  51.2506180  29.2693081  66.4223175  51.6549873  29.3922901
  64.9593353  51.8229675  29.7422256  74.8058929  34.6528435  52.2695923
  74.6577682  35.4500046  51.7608490  74.3178558  34.7924614  53.0811081
  21.9121323  55.5566902  17.9456539  21.7799759  55.4403419  18.8865204
  22.2757740  54.7221260  17.6498566  74.5044174  67.0893860  49.9741516
  75.2252884  66.4835281  50.1459160  73.7413330  66.6736374  50.3755074
  66.4668198   3.1145258  46.6304359  65.6574478   2.6177764  46.5105057
  67.0838089   2.4819329  46.9983864  66.4130020  22.4539452  16.1057758
  67.2014313  21.9427071  16.2881203  65.6924973  21.8951015  16.3969822
  69.5595169  49.7217903  34.6018562  69.1002884  50.0332146  35.3818321
  69.3417740  50.3617859  33.9241943  49.8778877   7.8292065  14.2376013
  48.9877968   7.7247200  13.9013691  49.7720032   8.3373518  15.0418453
   3.9757366  62.4295731  33.7972794   4.0607095  61.6860313  34.3940697
   3.6633251  63.1458702  34.3500443   4.9700122   9.1026869  78.0062714
   4.3676481   8.5560198  77.5017471   5.3239775   9.7215281  77.3675461
  38.7290154  58.7813606  44.5419426  38.1817741  59.5664787  44.5606384
  38.2022896  58.1333618  44.0740776   0.1248305  70.1326294  81.7482758
   0.6888794  69.6315308  81.1592255  -0.5159585  70.5476151  81.1708603
  72.9113922  36.1297798  34.0708160  73.2992096  35.2751579  33.8825378
  73.6221619  36.6330872  34.4679565  67.1425400   9.3886814  21.5879612
  66.5425491   9.6346464  20.8838730  66.5815353   9.2902498  22.3572559
  24.4487648  39.7059250  25.5060463  24.4422398  39.3101158  26.3775520
  25.0904160  40.4134140  25.5691051  35.6595459  66.1813431  74.8480148
  35.0567322  66.9107971  74.9920273  35.0932236  65.4439850  74.6203842
  43.8432999   4.1156025  36.6110764  43.1209183   4.6891465  36.8668861
  43.4375153   3.2564425  36.4952583  26.8215733  30.4150906  72.5482941
  26.8197613  29.6560421  73.1314545  27.5531425  30.9508839  72.8548279
  85.0146103  12.1863403  21.6844311  84.8384171  12.6147213  20.8467693
  84.5436020  12.7157526  22.3279381  73.1260910  67.0726624  32.6311722
  73.3787155  67.9621277  32.8786774  72.6423035  67.1801910  31.8122540
  68.3954544  30.3713665   2.0213313  67.6644058  29.7551708   2.0672276
  68.2299118  30.8807316   1.2280000  14.7159319   1.6976677  19.9791107
  14.9754086   0.8187027  20.2553787  14.2745647   2.0683970  20.7432995
   6.7124867  58.6548920  52.2677689   7.1766863  57.9869118  51.7632370
   5.8086386  58.6049919  51.9566422   0.6786363  11.3520594  70.4005508
   1.0396013  11.4784565  71.2780228   1.4356534  11.4175634  69.8184280
   2.2712438  44.6217308   5.4887786   2.2041190  44.7692261   6.4321613
   3.2030702  44.4642563   5.3366823  17.2157574  31.2749691  84.1918869
  17.9907551  31.0268860  83.6878357  16.7379055  31.8732967  83.6175232
  40.7748375  29.3337345  13.0787210  39.8818169  29.5012512  13.3798704
  41.2473564  29.0667019  13.8671684  86.5751877   4.0325103  70.5836411
  85.7263794   3.6002812  70.4890976  86.3616486   4.9177914  70.8784485
  19.2909050   8.3140707  74.4739685  19.3220482   7.7700191  73.6870270
  19.8890457   7.8848538  75.0857086  78.7743301   7.2767510  51.2035294
  78.5199966   8.0829010  50.7544556  79.7059250   7.1770711  51.0074997
  62.8852844  11.3001833  57.4844933  63.6902771  10.8684425  57.7705345
  62.2506485  10.5891285  57.3957787  42.0187874  40.8169250  41.0463905
  42.1668282  41.5191154  41.6798286  41.1908722  41.0459328  40.6240845
   4.2546635  61.7858467  50.7652664   4.7172198  61.5473709  51.5686340
   4.6372032  62.6249390  50.5087166  71.1437988  50.0924377  60.1507607
  71.2458115  49.1835899  59.8682289  71.9658737  50.2986755  60.5956039
  74.1845093   1.1038929  78.8289185  73.8779526   1.0120461  79.7310410
  75.1199341   0.9056305  78.8724747  72.9051361  52.6511765  29.7351704
  72.5300751  53.3850365  29.2483311  73.7884521  52.9412575  29.9628544
  80.2380905  68.0489807   1.9664733  80.5484695  68.0430145   1.0610136
  79.8792725  68.9276199   2.0908792  79.9951019  27.1873055  13.9836111
  80.2461090  26.2816639  14.1653881  79.4385529  27.1303062  13.2069244
  48.7735710  64.5431900  84.1366043  49.5437393  64.9891510  83.7841873
  48.9633064  64.4381943  85.0689163   1.5548933  32.0756073  44.4043121
   1.7533516  32.8630142  43.8975220   0.6726739  32.2254982  44.7440987
  18.3442554  56.0323257  61.5948372  17.4627380  55.7479095  61.8362312
  18.4939308  55.6431999  60.7332077  57.5421867  49.7365990   5.8695025
  57.7437286  49.2622490   6.6761026  56.8169556  50.3146477   6.1064243
  76.3678284   0.5152445  38.4324837  76.7247009   0.3608529  39.3071480
  75.6173325   1.0912043  38.5782509  40.1817169  58.9211044  24.4173393
  39.5937119  59.6705093  24.3231754  39.6773300  58.2827950  24.9217052
  60.9281769  32.2963257  37.7879105  61.6768456  32.0607147  38.3358231
  61.2390862  32.1719933  36.8911896  67.2576218  62.3779068   6.4239783
  66.6302795  62.9555855   5.9892807  67.2592926  62.6690216   7.3358340
  61.9412346  12.5664492  75.3813705  62.7243996  12.1702375  75.7633362
  61.9080658  13.4448261  75.7602997   7.8201118  50.0405502   6.2714963
   7.3773370  49.3169250   5.8281598   7.7595925  50.7713356   5.6562552
  11.5506763  52.1802864  81.1866608  12.2080660  52.8393822  81.4095154
  10.9322338  52.2023735  81.9169159  26.1223602  65.3910599  77.7316971
  25.5634441  65.2209473  78.4899216  26.2912750  64.5254593  77.3596420
  32.1355019  62.6121483  23.7082920  32.1434822  63.5686111  23.6715527
  31.2994766  62.3642654  23.3135223  61.4591789  31.0641785  34.9730606
  61.7803993  30.7334728  34.1342010  60.7627029  31.6772690  34.7379608
  75.5683899   3.6760576  32.1791496  75.4328156   2.7417450  32.0213165
  75.3703537   3.7932134  33.1082840  28.5652981  51.3275604  41.6524773
  28.3305531  50.8273392  42.4340782  29.2957802  50.8427658  41.2682838
  60.4709854  68.4397812  11.9578228  60.4642525  67.8939133  11.1715612
  61.2764397  68.9520721  11.8868418  39.7649269  35.3008881  62.1054192
  40.5589142  35.3484802  62.6379128  39.8210297  34.4517899  61.6671143
  16.3803158  45.7669678  42.5063019  15.5378952  45.7504692  42.9604912
  16.2590694  45.1856956  41.7555351  21.8803749  43.3817177   3.7876384
  21.7563305  43.2279434   2.8510499  22.5622749  44.0519943   3.8320577
  16.3752308  27.1596012  15.0661469  15.9804220  26.7300777  15.8250065
  17.3182335  27.0859509  15.2129602  71.4852371  47.6841660  35.0810814
  71.3499069  46.9816895  34.4451218  70.6796265  48.1997414  35.0435028
  38.4256248  32.9951057  86.5024567  37.5784035  32.5539894  86.5645752
  38.2866707  33.6912956  85.8603973  72.3203430  22.3748398  83.8103561
  71.9121017  23.1401386  84.2151871  73.2288589  22.4010887  84.1105804
   5.1161399  38.6903381  31.3203354   5.7961512  39.0485344  30.7497997
   4.4664025  38.3261681  30.7191238   8.1868868  11.9776068  87.4117584
   8.9328060  12.3845558  87.8524704   8.4690952  11.8820896  86.5021057
  76.7399521  59.9982681  41.2187881  76.0979538  59.7588158  40.5504074
  76.4498062  60.8543091  41.5338058  64.6054306  56.6029320  13.4798403
  63.9311180  56.6210747  12.8007212  65.4069214  56.8680878  13.0286903
  12.2318106  34.4890633  11.0963879  11.3401775  34.5321198  10.7508898
  12.2848120  35.2183800  11.7140589   3.1625085  15.9497976  60.6267357
   4.0045919  16.3180943  60.3593674   2.5176463  16.4146824  60.0935669
  75.7494507   5.0973768   2.1184340  75.5103378   4.3489046   2.6651044
  76.5028534   5.4870086   2.5620520  70.4866791  10.9814901  71.1947403
  70.4978561  10.1564598  71.6799545  70.2502899  10.7309399  70.3016663
  43.8314133   7.9335709  21.0186996  43.8576508   8.8816347  20.8894005
  43.0778084   7.7907023  21.5913239  30.7682667  51.0897522  20.2111282
  31.3210201  50.3820839  19.8796158  31.3021202  51.5168724  20.8810558
  83.9449158  27.3390675  35.6862106  83.9987793  26.4229660  35.9584007
  83.7122726  27.8128929  36.4847069  85.5388336   4.2199407  28.3745899
  86.1689758   4.3124876  29.0891418  85.4947586   5.0908284  27.9798203
  64.4117737  52.0930710  46.0188179  64.9635925  52.1764145  45.2411385
  64.0051575  51.2308197  45.9326897  11.1470585   6.6544499  64.1799088
  10.7660732   6.0296311  63.5629158  11.6266108   7.2730551  63.6289215
  25.2325649  56.8190346  65.2010422  24.9574356  55.9925690  64.8041992
  26.1874657  56.8100967  65.1353531  75.1097717  53.0584755  57.5138092
  75.0105515  52.2295113  57.0456161  74.2308197  53.4374847  57.5186996
  23.3963528  56.4867630  40.1862869  24.2304478  56.0708466  40.4043007
  22.7341938  55.8461990  40.4459991  52.6854019  27.3328571   5.9543991
  52.3942757  26.5369301   6.3993464  53.2163696  27.0177803   5.2229414
   9.0396185  30.2682743  72.0945282   8.6952372  30.9756527  71.5493164
   8.4951334  29.5116081  71.8772125  70.8904724  40.4774208  20.5662899
  70.7265472  39.5636292  20.7994003  70.8601532  40.4897118  19.6096497
  85.5934143  29.5130424  27.2118721  85.6856079  29.2423096  28.1253452
  86.0892181  28.8604088  26.7174263  63.3930397  27.3371468  75.8927460
  63.5925026  27.2773247  74.9584732  63.2122040  26.4351768  76.1572800
  68.9464340  69.2381439  40.2253342  69.5256119  68.5604019  40.5738258
  68.8671265  69.8741913  40.9362450  34.3146095  35.6653328  75.2485428
  33.6439056  35.1508980  74.7993851  35.1386337  35.3834229  74.8513718
  71.8842545  14.6889954  38.0917854  71.5918350  14.9893341  37.2312508
  72.7383575  14.2889595  37.9283562  10.2410240  37.5449181  65.1730118
   9.6034908  38.2541351  65.0905762   9.7346945  36.7481308  65.0149307
  81.4951477  25.7605934  10.6722040  80.6158142  26.0787373  10.8766098
  81.4593048  24.8221035  10.8570957   4.9443417  38.7046814  41.7196732
   5.7579579  39.0904312  42.0444145   4.6458731  39.3107452  41.0415611
   7.2070498  55.4260941  74.2130737   8.0447922  55.8825989  74.2906723
   7.0814390  55.3145828  73.2707291  54.8145027  46.5608597  86.7787094
  54.7131004  45.6111526  86.7154236  55.5968475  46.7531700  86.2618103
   2.3608921  16.8512135  55.1208267   2.2086854  16.3783569  54.3026123
   3.2488787  17.1981983  55.0353088  74.7298126  25.2231598  65.2679520
  74.7466202  24.2810116  65.4361954  73.8017960  25.4555836  65.2995605
  64.0161209  24.9007626  34.2601929  64.3906097  25.6971226  33.8836365
  63.2253113  24.7411709  33.7450333  73.4372559  70.8347702   8.8885927
  73.8993530  71.2809525   8.1789303  72.7433243  70.3423386   8.4501886
  20.9999504   7.3986435  60.4554176  21.0288525   7.3647828  61.4115791
  20.4620228   8.1656590  60.2590675  58.2972527  25.2141590  60.7386208
  57.4080467  25.5678864  60.7181931  58.3932991  24.8584843  61.6220779
  14.8868361  55.8989258  51.8363266  15.4688520  55.3711510  51.2895660
  15.3359747  56.7398567  51.9220047  42.0313911  53.5201607  38.3481789
  42.5124130  53.3548622  39.1590614  42.3848152  52.8842239  37.7261620
  73.3424301  27.7788544  35.7111740  73.4018326  28.3576336  34.9510956
  74.2024841  27.8403168  36.1268196  27.5268688  59.3067169  18.3339577
  27.0481834  60.1281967  18.2231979  27.8308029  59.0860329  17.4535275
   7.4367261  42.0957565  62.7311020   6.5993586  41.9935532  63.1834335
   7.7989907  41.2104988  62.6948700  59.7202873   3.5515165  81.1655350
  60.0824738   2.6987560  81.4060593  59.4514389   3.9408686  81.9976196
  48.6677628  12.9661360  30.7957726  47.7811127  12.8345280  30.4599705
  48.7690659  12.2974157  31.4731064  31.6418095  21.1445026  76.1530685
  32.0275002  20.5923443  75.4729233  31.3657398  20.5296421  76.8327484
  68.4151230   0.6514314  68.1272507  68.0726471   1.5136025  68.3630676
  67.6814194   0.2115345  67.6978302  63.1156425  28.1951084  30.1370296
  62.6118698  27.3987446  29.9689465  62.8776169  28.4451294  31.0298157
  29.2839394  56.1407623  31.0549774  29.6158276  56.8363647  30.4873333
  28.3352814  56.2682381  31.0604115  72.6710205  47.4919357  41.6996613
  72.6944351  48.4487305  41.6845627  72.1484146  47.2530327  40.9341240
  27.5405502  42.2487793  76.5180588  27.0464554  42.8441315  75.9544449
  28.0938950  41.7521973  75.9151917  58.9414864  26.0996513  64.4512329
  59.7167740  26.6256847  64.2551498  58.8313332  26.1793575  65.3987274
  71.1306305  41.4822540  35.8457031  70.8952560  41.3011627  36.7556686
  70.2914429  41.5526733  35.3907013  74.4394836  35.6746979  43.5501289
  75.3369980  35.6746979  43.8828392  73.9467010  35.1613960  44.1903801
  78.5668793  32.5745316  25.0962334  78.2411499  33.0316238  25.8716011
  77.9408264  31.8640919  24.9563656  56.5983467  54.4819870  18.2617321
  56.8031502  53.7967644  17.6255226  56.5333138  54.0207329  19.0979404
  41.6009140  56.2465172  17.9624367  41.6969681  55.2990036  18.0585022
  40.7455254  56.3597488  17.5480423  56.6951218  62.7778397  26.8547630
  56.1090698  62.0259933  26.7681370  56.2371368  63.4910126  26.4099388
  44.6016388  32.9470596  35.0643692  45.2921715  32.8004341  34.4179192
  44.7542953  32.2797661  35.7334328   9.3886023  57.6319962  17.0855370
   8.5677528  57.4947853  16.6126633  10.0582294  57.6530075  16.4018784
  66.9917831  18.9947624  69.3009644  66.7525864  19.8460865  68.9345398
  67.9246597  18.9039726  69.1067429  19.0717831  54.2778549  53.7801666
  18.5938206  55.1032524  53.8607979  18.8816185  53.8105164  54.5935936
  54.2996635  59.6900444  54.7272415  53.9987373  60.0749626  53.9041290
  53.5281143  59.7024078  55.2936249  57.3713341  24.1209621  31.7289619
  58.3231812  24.1809444  31.8103485  57.1169090  23.4610672  32.3739700
  56.4728241  18.0553799   4.1923475  57.0677757  17.3059731   4.1667299
  56.1144066  18.1070461   3.3062892  84.7190628  31.2613850  62.7926025
  85.1265030  31.5530262  63.6081810  84.4052963  30.3776188  62.9842796
  22.7123089  69.4836349   2.2429945  22.5439663  69.3662567   3.1779361
  22.8782215  70.4212723   2.1453679  49.9072342  16.8170357  13.0919390
  50.8010864  16.9075623  12.7616835  49.3708649  17.3071079  12.4687500
  13.0966358  63.0562096  72.9362793  12.6865778  63.8210640  72.5324478
  12.9639187  63.1814346  73.8759308  32.2614555  27.8779411  71.8085480
  31.5505238  27.2383003  71.7676849  32.7600098  27.6324501  72.5879135
  27.4765015  67.7804260  54.8928795  27.6683655  68.6539307  54.5516777
  27.0499058  67.3275299  54.1654663  27.9789047  20.6476707  11.1410990
  27.8442745  19.7410259  10.8652287  28.6594639  20.9779415  10.5545902
  66.9066925   7.8471422  16.7262974  66.4972839   7.1141453  16.2665863
  67.1545486   7.4873395  17.5779667   5.2961826   6.4893732  18.3063812
   6.2202306   6.7222695  18.3965282   5.1277366   5.8914356  19.0346165
   7.5481462  47.6828880   9.6948833   6.8706880  47.0215988   9.5535307
   7.8754406  47.8817902   8.8176451  64.6983414  49.8766136  62.1272469
  64.0086670  49.9396858  62.7880020  65.5134659  49.9399414  62.6250343
  84.2813187  29.1009750  20.6977768  83.6495743  29.3817368  21.3598232
  85.1033325  29.5153084  20.9601669  72.6951370  52.0800743   3.1667967
  72.2508698  52.0578575   4.0143604  73.0982285  51.2157555   3.0849354
   5.3086419  30.3326778  21.2512360   5.8180013  29.8195229  20.6239738
   5.8592949  31.0918255  21.4428329  38.2898865  52.4960861  36.0112190
  37.7677460  52.1991348  35.2659531  38.4708328  51.6991577  36.5096054
  64.3404846   8.1022749  62.1996460  64.9769974   8.7668467  62.4631386
  64.3296509   7.4795017  62.9264641  22.9478436  62.4261742  76.4946365
  22.0991936  62.6609688  76.8699951  23.0795460  63.0571098  75.7869568
  17.1090374  66.5315323  14.2796593  18.0312119  66.6883240  14.0765781
  16.9152870  65.6856537  13.8756981  54.2737007  61.4224968  37.2065353
  54.0709686  62.0664940  36.5280075  53.5320244  60.8175697  37.1918716
   0.0506273   3.8025453  49.7773743  -0.4910405   4.5470543  49.5155830
   0.9385834   4.0499163  49.5193558  51.1432686  30.1283836  36.6025543
  50.8343735  30.0472870  37.5049057  51.3917847  31.0487251  36.5162735
  33.0417175  20.4845028  10.2585869  32.7050819  21.3805237  10.2510490
  32.3570366  19.9750481  10.6920576   2.2363217  24.3363190  11.7400579
   2.7734981  24.4352608  10.9540024   2.5504518  23.5276814  12.1446047
   5.0273113  56.8717918  11.5589457   5.2791433  57.7506523  11.8425169
   4.0702205  56.8818169  11.5693550  45.2018166  20.4667892  39.0533371
  45.8545990  21.0914669  39.3693771  45.2190437  19.7569923  39.6953087
  50.4666328   8.2660847  77.0276642  50.5716171   9.1935177  76.8153534
  49.5544281   8.1859589  77.3064117  29.9610062  41.9998245  51.5575981
  29.8982277  42.0052452  50.6024742  29.3110828  41.3548889  51.8366890
  54.1271133  30.0477047   9.7368879  53.8546715  29.6837673   8.8945351
  55.0340805  30.3203411   9.5979252  24.7198238  35.0801086  53.6988983
  25.4335251  34.4423943  53.6854553  24.2766113  34.9612961  52.8588486
  20.8600826  70.6232071  69.3192444  21.2632294  71.4390488  69.0224152
  20.1248989  70.4879608  68.7213745   5.3109927   7.0103951   7.1134906
   5.2730103   6.2581525   6.5227957   5.8136873   7.6676431   6.6322889
  49.6977692  28.7099113  80.5384903  50.4705582  28.2533512  80.2059479
  49.4509964  28.2220783  81.3242111  16.8860512  47.6097984   5.5737462
  17.8403492  47.5618172   5.6307101  16.6823521  47.2921906   4.6940517
  31.1875191  19.4059944  69.2409286  30.7721748  18.8580208  69.9068451
  31.2834778  20.2611294  69.6601791  11.5211735  61.1151123  82.0970230
  11.0526381  61.9491310  82.0635452  12.2554722  61.2765198  82.6894608
  64.1914291  31.4038544  39.3340988  63.9388161  31.2689438  38.4207420
  63.5127296  30.9558754  39.8389893  69.8690186  47.6939125  78.4986420
  70.1114731  46.7792740  78.6431580  70.4827881  48.0018997  77.8318100
  83.1102753  58.0818672  20.9389801  83.2454758  57.7048225  21.8083420
  82.2081375  57.8523674  20.7160282  34.0271072  29.8152466  76.6548615
  34.6007271  30.3463211  76.1024551  34.3115082  30.0060978  77.5486832
  14.5432758  10.2340479  71.7695999  13.8947945   9.6719131  71.3456802
  14.1089096  11.0833454  71.8486710   1.5437679  41.9275742  69.9992828
   2.0429223  42.6981277  70.2700653   0.8009994  41.8992691  70.6023788
  65.3111572  60.2785759  43.4952126  65.8796997  59.5622711  43.2125473
  65.0521774  60.7136383  42.6828842  15.2139444  50.8347664  65.3497620
  15.1609039  51.4402733  64.6103134  15.5942888  51.3543510  66.0579987
  82.7138367  61.3113823  63.4194946  82.0221100  61.1277122  64.0551224
  82.2504044  61.6422386  62.6500816  67.6334915  28.3814945  76.9620514
  68.1987457  28.9284344  77.5075607  66.7542572  28.7341347  77.0992737
  60.3745995  32.4685822  23.5097485  59.7075806  32.3021202  22.8437080
  59.9093094  32.3814774  24.3417053   4.5879335  48.0415459   6.5235376
   4.6746912  47.1164398   6.7534943   3.6676943  48.2447395   6.6911836
  70.4629440  20.1980743  41.6949577  71.2663727  19.7868004  41.3762245
  69.8907089  20.2317314  40.9283791  67.7475739  56.5022163  47.6331291
  68.5458832  56.6375732  48.1436348  67.9166870  56.9458389  46.8019676
  47.3679466  71.0792236  41.6772690  46.5469208  70.5942764  41.7608261
  47.2936058  71.7879562  42.3163376  73.8021317   4.7294998  69.8396149
  73.7834167   3.7885027  69.6652374  74.4555740   5.0730405  69.2303238
   9.8975172  56.2935982  74.1824188  10.5780916  55.8993568  73.6368713
  10.3727388  56.8776016  74.7734680  25.4947701   9.9491558   8.5289516
  25.7473640   9.4189100   9.2847748  25.8601093   9.4833641   7.7767568
  84.0708313  59.4382935   1.4208609  84.1480713  59.0018654   2.2692704
  83.2131958  59.1703377   1.0908774  61.5969391  25.1432991  71.8783340
  60.9153519  25.0394897  72.5423355  61.7775459  24.2521782  71.5791397
  32.6560135  25.9243221  19.5764503  32.8276939  25.4713879  20.4020481
  32.3926048  26.8067226  19.8376312  11.8147984  33.6642609  77.7816391
  12.3038454  33.5682983  78.5988693  12.1506233  32.9670715  77.2182770
  50.2194519   7.7382126  86.5144730  50.0458641   7.0995994  87.2060394
  49.3515053   8.0119715  86.2178955  47.0900192  37.4798203  77.6473236
  46.3760109  37.0197678  77.2059937  47.1453438  37.0659943  78.5086746
  60.5629578  64.8641739  59.2319450  60.0871429  65.5813828  59.6508026
  60.1170540  64.7378082  58.3944321  61.8829994  66.5078049  43.2184868
  60.9463959  66.5159225  43.4158096  61.9498825  66.9199066  42.3571320
  58.2884521  21.4853134  12.0310402  58.2762184  21.8379898  11.1412640
  58.9982033  21.9576912  12.4661770  84.2524338  10.4285030  17.9347916
  83.8267059   9.5764790  18.0298805  85.0392456  10.3648596  18.4761848
  25.0349350  11.1905937  82.4779358  25.4328957  10.6341438  81.8084412
  25.0226727  12.0642223  82.0869675  76.2520142  62.5403519  47.0547066
  76.6002655  62.3627586  46.1809731  76.8792343  63.1502228  47.4431419
  25.3554001  68.3125153   1.7459916  25.2490425  67.3624802   1.6973639
  24.4729137  68.6441422   1.9117365  86.1166992  22.4425144  38.9465981
  86.9808426  22.0337296  38.8978577  85.5706329  21.9189262  38.3601685
  15.6832075   9.5462532   1.2965692  14.9979181  10.0157661   1.7721412
  15.8978844  10.1179237   0.5594540  38.8983116  12.4436026  81.7029572
  39.1832275  11.5600271  81.9360886  39.7027512  12.9623585  81.7025299
  16.4864101  48.7870598  64.3103409  15.8272896  48.1753578  64.6383896
  16.1244774  49.6529198  64.4988174  76.1633148  58.8838081  12.4155674
  75.6590195  58.4025536  11.7595892  76.4534836  59.6749611  11.9615669
  43.8321037  10.4363556  69.1286240  43.2414703   9.9150209  68.5849380
  44.0974579   9.8428335  69.8311539   8.3430643  27.8210735  23.3987598
   8.5255880  28.3092194  24.2016468   7.7518611  27.1202717  23.6736946
  35.6845016  22.9090557  18.1605930  35.8188057  22.3961811  17.3636284
  36.4022636  23.5423374  18.1616783   6.2230816   6.4152002  73.6977005
   5.8920288   6.8117690  72.8918686   7.1643667   6.5881810  73.6806335
  38.7258415  37.3599739   0.1056366  37.9792175  37.7427368   0.5663688
  38.3470383  36.6563225  -0.4212531  27.1525383  33.7540512  54.0255737
  27.7142658  33.9965935  53.2894592  27.6275730  34.0570755  54.7993622
  37.9382820  68.1280975  77.0975876  38.0815964  68.1513214  78.0437164
  37.3569603  67.3798828  76.9616928  59.2450981  58.7355385  66.2967072
  59.7337914  59.4437828  65.8774261  59.8986206  58.0541039  66.4541473
   6.5089478  25.6513271  88.8915100   7.1489382  26.1358738  89.4129105
   7.0340533  25.1827946  88.2426910  46.9472580  15.8076210  78.4659653
  47.4791451  15.0824089  78.7936783  47.4763718  16.5875034  78.6334534
  18.3841305  16.8775368   1.4495004  18.9394169  16.1012135   1.5217001
  18.0532856  16.8527031   0.5516381  81.7672958  31.7129593  65.0122452
  82.6091690  31.3130341  65.2302856  81.8959732  32.6470184  65.1772003
  25.0534134  67.8415451  77.8800507  25.0341721  68.1144485  76.9627762
  25.5070305  66.9987183  77.8697205  50.2155342   1.5672693  85.9141388
  50.3593025   1.2165095  85.0352020  50.8826790   2.2465127  86.0130310
  51.6709938  28.1158161  22.5301285  52.5603333  28.4067707  22.3284988
  51.1512260  28.9195938  22.5344639  63.6814308  64.6171951  41.6187897
  64.5050659  64.9954834  41.9266129  63.1902046  65.3622818  41.2727089
  65.9055634   1.3622148  87.1253357  66.7234497   1.8084128  87.3448792
  65.3628769   1.4580710  87.9079819  42.3739128  39.5740433  89.0601196
  41.5646095  39.3931541  88.5820618  42.4285355  40.5293388  89.0857544
  12.6353521  43.9449310  56.1715240  13.3134432  43.4167595  56.5927811
  11.8121786  43.5395584  56.4440804  75.7520599  11.5077181  66.7075119
  75.6270981  10.9912300  67.5036621  74.9681625  11.3366280  66.1855240
  44.8367653  48.1601486  31.6408253  45.7195435  47.8784790  31.8808174
  44.7467270  47.9087181  30.7216377  20.7607555  39.8124008  12.1130829
  19.9928589  39.5816116  11.5902996  20.4066219  40.3010483  12.8560791
  63.3341560   9.8378201  87.0714569  63.6996155   8.9786358  87.2823486
  62.4511299   9.6508408  86.7528076  56.6808319  66.7430420  14.1372385
  57.5520668  67.1309586  14.2191544  56.6617393  66.0545502  14.8019505
  55.5084801  23.5202484  21.6202602  54.9744644  22.8086090  21.9732876
  56.1228485  23.7302837  22.3235836  81.9195404  42.7861786  67.6155396
  81.1914215  42.3473244  68.0554047  81.6063385  43.6782188  67.4658737
  30.8682117  22.3768749  13.3319664  31.5608940  22.3183556  13.9899940
  30.0729713  22.5493679  13.8360214  82.0095215   1.8867214  75.4759521
  82.3939896   2.7387185  75.2697449  81.4058456   1.7151177  74.7532120
  27.6862144  69.7236481  70.0832367  27.5867004  68.8687134  69.6644135
  28.2987556  69.5683060  70.8021927  67.2919235  47.6490021  76.9921112
  67.2003326  48.5981255  76.9084167  68.0385361  47.5312920  77.5794373
  69.4537735  35.6361008  14.9676228  69.8292847  36.1398735  14.2455168
  68.5923996  35.3663635  14.6490021  72.2783279  55.7723770  20.9966488
  72.3379211  55.3579941  20.1358528  72.3673477  55.0491333  21.6173134
  58.7591209  49.3292542  28.4533653  57.8311806  49.1337700  28.5835419
  59.1936455  48.4783783  28.5118923  51.1803665  25.0475941  80.6259308
  50.2774048  24.8186531  80.4057541  51.5673141  24.2276592  80.9328613
  16.8694344  57.3565407  24.0765285  16.2048969  56.8032761  24.4870415
  17.6989708  57.0397148  24.4339104  50.5507889  45.4733963  76.1626587
  51.5049591  45.4502869  76.0901489  50.2391663  45.3327255  75.2686005
  13.1691465  57.7008018  37.0895348  13.2566242  58.0645561  36.2084770
  12.2245836  57.6598549  37.2390556  67.9517365  12.2967110  86.6674576
  67.2169800  12.7955589  86.3103638  67.5419312  11.6113262  87.1952209
  21.1988602  37.2714500  30.1829414  21.0109482  37.3320656  29.2463264
  22.0361366  37.7230682  30.2889633  33.1696320  66.5144043  14.0998583
  33.4377556  65.9357986  14.8136883  32.3173866  66.8534622  14.3736315
  63.2035789   9.7536745  65.2378998  63.1371994   8.8137779  65.0693207
  62.4362755   9.9557600  65.7732849  83.0232925  54.0954514  64.5564117
  83.9372101  53.9125519  64.3383789  82.5445404  53.3270035  64.2457428
  73.4984970  57.2601128  26.8216629  73.2057114  56.5332947  26.2718983
  74.4163284  57.0637665  27.0094585  67.9146957  17.1698704  60.6659203
  67.4799881  17.0293884  61.5070648  67.7160263  16.3824825  60.1591835
  56.2944832   9.7887983  31.9536018  57.0312538  10.3851185  31.8201885
  56.0139084   9.5531549  31.0693035  38.9805183  54.6744766  18.0886097
  38.9806175  55.5768967  18.4077797  38.0565529  54.4728012  17.9408112
  12.5164747  64.7896576  83.9988022  11.8945036  64.0686951  84.0967560
  12.5311375  65.2117157  84.8578033  86.3494644  36.7236481  87.9001923
  85.9137268  36.3964310  87.1132431  86.4112854  35.9604683  88.4746170
  22.5327015  28.4624939  10.4181356  21.6183624  28.6388931  10.6397200
  22.5870838  28.6271935   9.4767809  45.2282600  15.2877769  73.2979660
  45.3408203  14.3384562  73.2494659  45.2209778  15.5750589  72.3849258
  40.6232643   1.7134151  64.6846695  40.0000153   0.9939452  64.7854385
  40.7072182   2.0824800  65.5638580  50.8863602  69.8721237  26.1853256
  51.2290306  69.4884567  26.9925461  50.5501900  70.7281113  26.4508667
  68.3798447  14.4415064  27.0784817  68.1612549  15.3222923  26.7740688
  68.3136215  13.8943100  26.2959061  50.6169510  46.4744148  34.1885338
  49.9306717  45.9666367  33.7556267  50.5392838  46.2420120  35.1138382
  30.7901707  45.8604164  28.2695084  30.8520527  46.8013420  28.1049919
  31.0041656  45.7649612  29.1975861  70.9588699   5.0340514   8.9511423
  70.0550461   5.2672019   9.1632023  71.2288284   5.6857476   8.3041124
  19.6678734  59.9511681  12.9511642  19.7973614  60.1567383  13.8770189
  19.4838772  59.0119133  12.9378204  67.8950424   3.3773332  13.0207281
  68.2693024   3.3933153  12.1398716  67.4819641   2.5166273  13.0898714
  12.6586990  35.9547234  71.3424759  13.5992165  36.1311111  71.3191223
  12.2511234  36.8108597  71.2115479  79.6122971  48.5831642  72.2573395
  79.4908676  47.6860733  72.5683365  79.4463882  48.5348015  71.3158722
  36.1727638  59.8532372  70.0560532  36.4155350  58.9582558  70.2933350
  35.5867958  59.7515945  69.3060226  68.5652008  61.1276817  88.6040955
  67.6657333  60.8003616  88.6115723  68.4786911  62.0614281  88.4120789
   2.3549750  17.6418018  85.6007767   2.6184454  17.3145199  86.4608383
   1.9499619  18.4901390  85.7811050  57.5034676  53.7784500  39.0060081
  58.2489471  53.2408180  38.7387085  57.3846092  54.3979950  38.2860985
  66.2405014  54.0128555  79.5034790  66.0157700  53.1224632  79.7735443
  66.3294678  54.4968948  80.3244705  47.4616318  30.6050491  88.1604233
  47.2598190  30.5882473  87.2248917  46.6066589  30.6418266  88.5892563
  59.4319038  31.4724102  51.4513588  60.3624306  31.6482830  51.3120079
  59.2468758  31.8344345  52.3179245  23.9355659  67.2368622  19.4444885
  23.4978962  67.9723053  19.0157700  23.2923679  66.5283737  19.4205074
  45.0894012   3.3777537  89.3601456  44.5784569   3.8635828  88.7127380
  45.4332542   2.6254926  88.8783798  67.3880615   9.2009058  66.1683884
  67.6341400   9.9666500  65.6494370  66.6329498   9.4909887  66.6801376
  61.6962967  45.9925804  71.3386002  61.4570389  46.8187141  71.7587128
  62.0131569  45.4425201  72.0550232  36.9337273  42.7801208  81.4890747
  37.2686157  42.9760170  82.3641205  36.2618217  42.1138229  81.6333847
  69.7778168  39.4902534  61.8144760  69.3092880  38.7245750  62.1468124
  69.1522446  40.2096634  61.9001541  51.5213013  53.4144325  58.5872765
  51.5978661  54.1026993  59.2480812  50.9506912  52.7592010  58.9889107
   2.9739175  46.1943245  34.8548965   2.0825033  46.3975639  34.5715103
   3.0842049  46.6853409  35.6691284  38.7180405  57.2356834  19.0334129
  37.9489822  57.6711044  19.4010983  39.3863182  57.3146591  19.7141457
  37.7813377   5.5322666  47.3327179  38.5041733   6.1009865  47.0675850
  37.5903854   5.7920165  48.2339935  60.6811905  50.4302673  21.3274765
  61.4896584  49.9448891  21.4918613  60.4177399  50.1653214  20.4462128
   9.2644577  59.2566872  71.1534653   9.7623072  60.0581970  71.3145905
   9.8874474  58.5497971  71.3220520  69.6112137  56.0064621  20.8620796
  70.5279236  56.2796707  20.8270283  69.3153458  56.0433617  19.9525013
  68.1053543  34.5716171  54.6468124  68.7130127  35.2517891  54.3563766
  67.4067383  34.5793076  53.9925194  70.6140137   2.6723926  33.4625931
  71.0704498   2.2732661  32.7219200  69.7969055   2.1790359  33.5344391
  46.9385719  47.6064606  47.8094749  47.3727722  47.2046623  47.0569725
  46.1688805  48.0386124  47.4392738   0.2610714  19.5411129  59.3918762
   0.3776971  18.6070232  59.2183609  -0.2872563  19.5724640  60.1758308
  85.1943665  47.5713501  75.0660172  85.6445236  48.2065239  75.6229248
  85.1139603  46.7890053  75.6116409  38.9846992   3.0193450  44.4146996
  39.7980194   2.6033852  44.1288300  39.1681671   3.9578731  44.3730316
  51.4306526  45.5407028  38.3346901  50.9351234  44.7808342  38.0292664
  52.1727142  45.6003380  37.7330132  79.8974075   4.4874344   7.4685073
  79.7637558   4.9668565   6.6508746  80.8347321   4.2938719   7.4821887
  51.8670158  57.4795380   5.4440503  51.8386040  57.6659698   6.3824887
  52.6849403  57.8771667   5.1455178  85.5310364  11.1603909  27.8348351
  86.4531097  11.3994598  27.7407188  85.3763580  11.1698656  28.7794075
   2.4974742  18.0668068  58.9217796   2.7597163  18.0717087  58.0012169
   2.0270417  18.8918285  59.0412025  82.7337112   7.5735703  68.8332520
  82.9501953   8.4542084  69.1395874  82.1607590   7.7161632  68.0798416
   0.4276446  70.8505020  15.3697138  -0.1132641  70.0615234  15.4038897
   0.8500032  70.8143463  14.5114965  45.5713310  14.7664003  35.7118645
  45.6809692  13.8458033  35.4737167  45.5633850  14.7668829  36.6690292
  38.7644958  23.5845451  85.0333633  39.1790962  22.7278824  85.1356659
  39.3198738  24.1809158  85.5354919  79.7084579  20.9498959  72.7866974
  78.8311691  21.3085079  72.9208374  79.8999252  21.1237125  71.8650894
  79.9654541  41.9462585  77.5307159  80.8178177  42.0892105  77.9421463
  79.4312363  42.6844826  77.8237381  36.2352829  43.4145088  18.0488834
  35.7354736  42.6039124  18.1455975  35.9981689  43.7399330  17.1804905
  50.9609375   4.3709555   8.4443836  50.9940948   5.0004463   9.1647129
  50.0480461   4.0842566   8.4186783  12.2427034   0.7732022   2.5206637
  12.8121271   0.0195322   2.6754863  11.4394789   0.3966681   2.1611025
  41.8475418  50.3737373   5.5341158  42.4723396  51.0536652   5.2820048
  42.2874374  49.5518112   5.3169570  18.3045540  26.5931301   4.2764683
  19.1424770  26.3765373   3.8675606  18.3534832  27.5352707   4.4383593
  47.4538727  34.3371086  55.6876526  46.7397537  33.7863197  56.0084343
  47.4072037  34.2589111  54.7347946  77.3420181  51.3369408  59.6142654
  76.5259857  51.8224068  59.7353210  77.5994110  51.0767937  60.4987450
  70.3337021  11.1326075  59.4173203  70.8905182  10.4186525  59.1067543
  69.4587021  10.7481833  59.4704666  76.6425400  43.0698051  70.5644150
  77.4727707  43.5267982  70.4298706  76.5702744  42.9791565  71.5145721
  45.7597160  24.8401203  79.9398346  44.8695030  24.4939117  80.0022583
  45.8505669  25.1036129  79.0241165   3.3732293  52.9904442  17.1175785
   4.0410123  53.1013947  16.4408302   2.7870834  53.7380867  17.0005379
  43.1618538  70.5838394  58.6835594  43.7611694  70.5245361  59.4275589
  42.7302971  69.7299271  58.6549759  26.7832451  15.4744186  12.8879337
  26.3215828  15.0743008  13.6248226  26.1557178  16.0978470  12.5221777
  39.7300453  63.3193321  80.7734070  40.0250549  63.4712181  79.8755569
  39.7586479  62.3682137  80.8772583  39.7372894  42.9260902  25.5242195
  39.7802696  42.6558228  26.4414654  40.5484848  43.4132652  25.3798103
  75.9413376  22.7493324  25.0306339  75.6366425  21.9510136  24.5992603
  76.7814560  22.9410534  24.6138935  23.4520988  59.8014412   8.6014805
  22.6928406  59.9136772   9.1734600  24.0042934  60.5615845   8.7845001
  37.6150208  43.5638618  40.7655602  36.7158165  43.6107483  41.0903091
  37.9514732  42.7368355  41.1106148  41.8831482  48.8433304  52.7202110
  42.6373444  48.3749313  53.0780182  41.1812592  48.1926270  52.7071075
  44.8003464  32.2926140  60.3762245  44.5222969  32.0867271  59.4837379
  44.6959801  31.4705124  60.8552704  14.6612864  54.7999992  86.5077515
  15.3233471  55.2488823  85.9820099  14.5962896  53.9282913  86.1177063
  75.4909973  12.3806152  61.7778854  75.1054688  12.6630936  62.6072235
  76.2556534  12.9451513  61.6646233  58.1049614  32.1400795  66.3281479
  57.8775749  31.2385349  66.5556107  58.2144203  32.1268692  65.3773193
   2.2503703  45.7652893  46.0130310   2.6480086  45.7506943  45.1424561
   1.3166523  45.6291656  45.8521767  43.3405952  42.1231651  89.1880264
  43.7023239  42.5480728  88.4103165  42.6181602  42.6906586  89.4568558
  43.9685364  31.5830803  46.0660744  43.8236618  30.7181015  45.6826019
  44.7410126  31.4729519  46.6205025  79.7647171   0.6140532  13.6648159
  80.1604004   1.2924826  13.1176424  78.8301086   0.8207921  13.6642828
  26.9007397  25.3994904   9.2350988  26.5999603  24.9709454  10.0364189
  26.6940403  26.3248520   9.3662901   9.8228559   3.1706927  20.0807323
   9.0554218   2.6759472  19.7934971  10.4078894   2.5106657  20.4526634
  40.2577705  65.7350006  59.9426460  40.4607735  66.1502533  60.7808533
  41.0578690  65.2647095  59.7083435   4.1106200   8.0469809   9.6694193
   3.1697204   8.1085138   9.8342028   4.1759496   7.6713820   8.7914162
  42.1221809  33.4501381  35.6332436  42.9926796  33.1672707  35.3531647
  42.2161407  34.3887253  35.7958946  65.7657318  66.5056458  83.2040253
  65.5081558  66.9678879  82.4063950  66.3601151  65.8190079  82.9015961
  22.6998730  50.4674835  47.8710670  23.2607460  49.9797745  48.4742203
  21.8094330  50.2133942  48.1135292  23.9931641  59.0540504  40.4547920
  23.6170444  58.3182716  39.9716797  24.1466866  58.7095184  41.3345413
  44.2605743   7.9386091  79.4432907  43.3609772   7.6568241  79.6092834
  44.7153778   7.7884398  80.2720490  65.3961563  27.9339657  85.3553467
  65.8766556  28.4064903  86.0351028  65.8185883  28.1959858  84.5373383
  23.9439774  52.9124756  47.4622459  23.5973206  52.0538597  47.7048187
  23.1769104  53.4082642  47.1758308  76.5614624  10.8420668  81.3513947
  77.5107727  10.8430490  81.4740524  76.4425049  10.7823915  80.4034882
  43.2308922  22.9138088  79.0079803  42.8782005  23.0049438  79.8931580
  43.8154068  22.1575699  79.0597382  48.3334579  67.2419052  66.4744110
  47.4944077  66.9108582  66.7947693  48.1497345  67.5370407  65.5825729
  80.5772247  53.2205276  75.5510941  80.9350891  52.7016678  76.2714767
  80.5108261  52.6040840  74.8218384  48.2865486  39.3435936  70.4471970
  48.4486008  38.6821861  71.1198883  47.8650742  38.8626022  69.7349930
  62.6850204   3.4296691   0.5160398  62.3068085   2.6567430   0.0967878
  63.5575752   3.1494386   0.7923591   2.9189553  10.8653049  64.9178619
   2.3244720  10.4305525  64.3064575   2.6238933  11.7757778  64.9323196
  85.9459457  36.4144058  59.8717003  86.0470657  37.3216743  59.5838356
  85.3007889  36.4575577  60.5774956  79.6218338  11.5438766  31.2230949
  78.8298035  11.9546804  30.8764477  80.3240204  11.8597651  30.6544323
  45.6217957  63.6496010  52.9898453  46.3454971  63.6928062  53.6148415
  45.6635208  64.4809494  52.5172424  80.5091095  58.2552185  57.1931992
  80.2069626  58.0465126  58.0771561  80.1089554  59.1023560  56.9970741
  52.5400314  60.4232368  45.1095428  51.5987434  60.2617378  45.1738129
  52.9361496  59.5531693  45.1575470  60.4004898   3.0751660  19.4217472
  60.2534714   3.9656973  19.1030445  59.6300468   2.5867476  19.1317539
  78.1401443  21.0500336  14.7222424  78.2159653  21.9630947  14.9993734
  78.8667450  20.9238186  14.1120300  76.1139145  18.0003834  82.3947144
  76.6088562  17.2647839  82.7554855  75.3939896  17.5918922  81.9140091
  80.5777359   4.1293550  40.2928391  81.0388260   3.3450444  40.5903091
  81.2708588   4.7722492  40.1428337  72.2114944  10.3562975  18.1639614
  71.7108994  10.5631266  17.3747482  72.4169006  11.2088604  18.5475979
  40.0485573  62.3358955  75.8800583  40.0862541  61.7187729  75.1493225
  39.7219925  63.1474724  75.4915543  50.0611191   3.6442003  67.4341431
  49.6261177   3.1663520  68.1403122  50.6484146   4.2524509  67.8828583
  83.0679245  30.6763153  79.2655945  83.9216919  30.6371422  78.8345795
  82.4566345  30.9060402  78.5657501  49.2822838  28.6723633   7.5981507
  49.0673332  28.1350613   6.8356977  49.5903854  28.0461617   8.2532663
   5.5361514  62.0033569  81.7965698   5.2346234  61.1921921  82.2056198
   6.3792863  62.1824875  82.2128220  39.9154587  22.8640041  74.1197433
  39.8553467  23.7210979  73.6978378  40.7788658  22.5343895  73.8705215
  39.2882500  66.9903183  50.0053825  38.8152771  67.7822113  49.7495766
  38.6488037  66.4791107  50.5013771  31.3932972  10.1834755   0.4492043
  31.6810570  10.9328613  -0.0721850  31.4115543  10.4991293   1.3526762
  44.4500504  23.2397594   5.0720792  44.0818405  24.0323868   5.4624596
  43.6962471  22.6643028   4.9422207  13.1257429   0.3138045  62.3140221
  13.2887535   1.2565237  62.2833633  13.9486408  -0.0614858  62.6274338
  61.2240334  53.7802734   4.4818573  60.9893723  52.8923721   4.2120447
  61.8092117  54.0934181   3.7921174  74.6120834  11.1082373  85.5380325
  73.9894562  11.8314505  85.4636765  74.1453323  10.4411526  86.0413971
  51.3231964  64.2146530  79.3571091  51.8270912  64.2518158  80.1700897
  50.4093742  64.2488785  79.6399384  41.5112267  58.2458420  57.3099136
  41.7240868  57.4910126  56.7611351  41.0415573  58.8415375  56.7261391
  21.1469841   5.4471769  15.5884991  21.0093670   4.8994451  16.3613396
  21.9590225   5.9197984  15.7714090  72.3621216  21.9571190  46.7089043
  72.5704422  21.9536495  45.7746544  71.7885590  21.2002964  46.8292160
  48.5293655  55.0548859  25.9910564  47.8596039  55.7176743  26.1594696
  48.0959816  54.4143486  25.4270363  47.3535881  50.4975319  63.4622993
  47.9011765  49.7157631  63.3900948  46.4565315  50.1665611  63.4177742
  53.0023766  14.5269260  44.5586014  53.7700233  14.7614536  44.0371208
  52.2811699  14.5110474  43.9294434  82.4126587  55.1932945  75.4883575
  83.1280289  54.6699295  75.1270218  81.6499023  54.6163750  75.4483719
  41.0006523  20.3307896  60.7841339  41.6446152  20.4483299  60.0857620
  41.0545769  19.4011402  61.0056725  31.8700848  54.8856812  87.8871841
  32.7489777  54.5376816  87.7366028  31.9875088  55.8355675  87.8998260
  63.8190994  19.0184746   9.7541790  64.3106003  19.6095791   9.1838684
  63.3890419  18.4092350   9.1540890   4.0205050  36.7920723  43.4134750
   4.3469243  37.4573479  42.8075981   4.5227661  36.0059052  43.1992264
  66.5538864  28.4561787  37.8123932  66.9676743  28.8991127  38.5532188
  66.0447540  29.1405830  37.3781052  84.7186737  23.7014236  22.4501343
  85.5320282  23.3487263  22.8110790  84.0461349  23.4471531  23.0820141
  71.8041687  53.7460518  68.0595703  71.2626038  53.0313683  68.3944855
  71.6141891  54.4829140  68.6402359  78.0740128  53.1389732  76.5109406
  78.8595276  53.5511017  76.1512909  78.3974075  52.3575211  76.9592514
  32.4826088  23.2846756  87.8838272  33.0356674  23.2784271  87.1026001
  33.1005974  23.2826061  88.6147995  76.2840195  65.4022446  21.4565945
  75.7921829  65.1275253  22.2304516  76.1233826  64.7119751  20.8132000
  55.5348701  41.3298683  77.7955399  55.0851517  40.5784912  78.1820831
  55.0889320  41.4723778  76.9606323  20.4360752  64.2299042  56.2139359
  20.3605061  64.2701187  57.1673012  19.6464863  64.6651917  55.8925133
  30.9337616  19.0471821  72.2484283  31.3468857  19.3822765  73.0442123
  30.4233685  19.7849541  71.9146347  24.4090004  65.6033936  21.8784580
  23.7704906  66.0387039  22.4432964  24.7286377  66.2959518  21.3001575
  24.0488396  45.5418549  73.0658417  23.1924286  45.7100639  73.4589081
  24.1912498  46.2821884  72.4760437  76.1612625  22.4528370  49.2339134
  75.9356384  21.5932178  49.5894165  77.1049423  22.4081745  49.0799408
  32.8510323  46.1572762  10.7459326  33.1242790  45.2637329  10.9536648
  32.9506721  46.6356697  11.5690012  55.4132843  34.4658852  75.5960693
  55.9679375  34.2001724  76.3295441  54.6371078  34.8455124  76.0079803
  57.6205292  55.4919739  54.2100716  58.0699043  54.9255486  53.5828094
  57.3547516  56.2546997  53.6964149  33.7579498  62.6782303  52.0525475
  33.7384224  62.5269203  51.1075821  32.8971710  62.3926315  52.3586807
  15.0832453  45.2406654  38.2984657  15.0059357  44.6304779  37.5650291
  15.6179857  45.9578629  37.9580078  11.6703663  63.9270973  78.2680206
  12.3658657  64.3153992  77.7372437  11.8183661  64.2741089  79.1477432
  55.9203110  52.7568932   7.7418623  56.8292961  52.7954750   7.4443932
  55.7745590  53.5973396   8.1761894  37.0031700  36.2652893  63.0730476
  36.4789734  35.4748154  63.2018776  37.9067154  35.9509315  63.0410957
  48.7386856  43.9278603  54.5288391  49.2789383  43.5458832  53.8371353
  48.2918320  44.6613159  54.1062355  27.2173405  44.1459999  87.6053619
  27.4787502  43.5640030  86.8917999  26.2724495  44.0161896  87.6863708
  56.4875946   0.7581558  12.3608265  56.9260597   1.4980330  11.9406319
  57.1093750   0.0347435  12.2814608  28.0684052  37.2123795  70.1414032
  28.3082333  36.4293823  70.6370163  27.7092133  36.8755913  69.3205566
  69.3758163  33.3498840  65.0202103  69.3389740  32.6828308  65.7057190
  70.2815933  33.3263817  64.7115860  15.1299696  21.0641804  71.4491272
  14.3477983  21.0851994  72.0004883  15.5127010  21.9364948  71.5430145
  61.1746941  27.9305592  39.8108902  61.9787903  27.7641621  39.3189812
  61.2965469  27.4598064  40.6353760  50.5101700  48.8765945  43.4798241
  50.3109245  49.8101120  43.5511169  49.6814957  48.4739685  43.2201729
   4.8163877  37.9203262  11.7681704   4.5142674  37.4477615  12.5438232
   5.7710595  37.9071846  11.8364420  24.4658928  19.0837307  82.1782074
  24.1843395  19.9786777  81.9883957  24.2150173  18.9422340  83.0910416
  60.6703377  17.9604511  49.3678322  59.8865166  18.0293655  48.8227577
  61.1444817  17.2090950  49.0116234  78.8809509  64.6503448  60.2865334
  78.2806778  64.5623398  61.0269051  78.8798065  63.7869377  59.8733101
  84.4419937  31.2369804  65.7699814  84.8258896  32.0206337  66.1633530
  84.9634857  30.5139656  66.1185913  45.0059242   1.9343008  18.2810287
  44.5305481   2.3877738  17.5848885  45.7717133   2.4844384  18.4457874
  35.4186707  64.7620010  20.1380711  35.3204880  65.6260376  19.7380333
  34.5617867  64.5773392  20.5226269  43.8741570  58.8648376  28.0171547
  43.0964508  58.7587662  27.4692898  44.5230446  59.2635422  27.4373169
  49.7149010  27.2817554  47.7239685  50.4551620  26.7357502  47.9887733
  48.9809799  26.9607239  48.2479286  51.2157211  17.6332417  44.0745926
  51.0136871  16.9821548  44.7465286  50.3849487  17.7746964  43.6206741
  80.3001709  49.1386108  52.9933090  79.8635025  49.9885178  52.9366684
  81.2289047  49.3381920  52.8756142  38.1669884  46.6063042  12.7528296
  38.4684525  47.0713234  11.9723740  37.2204781  46.5274315  12.6339808
  23.8492165  29.9419060  16.4205246  23.8483639  29.1653709  15.8608589
  23.4375706  30.6219196  15.8872709  34.3840218  24.9924374  67.7374496
  34.3783569  25.2908916  66.8279877  34.6145859  25.7713871  68.2437210
  13.4425411  68.0799103  83.3956757  13.2198200  67.7999649  84.2835083
  12.6520777  68.5151978  83.0764084  78.7633820  27.8324127  37.5067940
  78.7477188  28.6310673  36.9794083  79.4855118  27.3197041  37.1436386
  77.3052597  68.7205658  50.8722382  76.5792694  69.1439896  51.3303566
  76.9244156  68.4181442  50.0477791  52.6219482  24.1446438  51.9416161
  51.9696426  24.8320408  52.0765800  52.4585114  23.5176926  52.6462097
  79.2323608  39.5019226  72.3114166  78.6160278  40.2321663  72.2555923
  79.9998398  39.7983246  71.8221741   1.8929348  11.1762991  81.0010605
   2.2409787  10.2882147  80.9210434   1.4211696  11.1745214  81.8339310
  41.4632874  11.9196024  58.3068542  41.2351265  12.4648685  59.0597572
  41.7779770  11.1010647  58.6905174  19.2916698  30.3664207  72.8198929
  18.6873798  29.6273270  72.8892365  20.1518402  29.9625397  72.7049179
   9.2609682  50.4000206  30.8328495   8.7340784  51.1755219  30.6399250
  10.0323400  50.4892387  30.2731552  86.1118317  10.4491196   8.3832560
  85.5874557  11.0543728   8.9075937  85.4794922  10.0250797   7.8031101
  14.4293900  57.9501572   3.4845994  13.9644642  58.7332344   3.7793276
  15.1243172  58.2835922   2.9170353   3.5291493  35.2215385  87.2841949
   4.2442122  34.6701622  86.9665375   2.8309164  34.6049347  87.5044327
  29.3883171  47.5112839  68.4865799  29.0566711  48.3222427  68.1011124
  29.0299053  47.5038757  69.3741150  74.0675354  62.1540833   2.1142542
  73.2276611  61.7095985   2.2294796  73.8338776  63.0646973   1.9341995
  76.1699524  16.8292103  34.9160233  75.3674850  16.4929752  34.5170021
  76.8742523  16.3563366  34.4726410  58.8289680  49.0248070  82.2005081
  59.5475960  49.6569366  82.1859055  58.9508553  48.5051956  81.4059143
  29.8072987  47.8587875  61.5805397  30.1150799  47.6949806  62.4719810
  28.9719009  47.3946495  61.5265045  67.6212997  49.1070061  54.5245209
  68.1300888  49.0677872  53.7146873  66.9634857  49.7830009  54.3615990
  79.4722748  66.6316757  67.1768341  79.4083405  66.6077499  68.1315994
  78.5638275  66.6600952  66.8765945  42.3707695  46.4648705  50.1663475
  42.5483437  45.6029816  49.7897148  42.9204750  46.5020790  50.9490776
  71.8065414  60.2974358  66.9800415  72.2367554  59.4423637  66.9800415
  70.9449463  60.1320534  67.3628464  81.4685745   1.0863309  24.0417976
  81.1612015   0.2116219  24.2797832  80.6739807   1.6191256  24.0104580
  51.0055122  42.0409737   8.8229351  50.3209457  41.3877563   8.6783371
  51.5549164  41.6640434   9.5101852  52.8506317  64.4271774  81.6906357
  53.8027229  64.4289703  81.7893906  52.5237694  64.7901917  82.5138092
  31.8176270  14.0314283   4.8082047  32.5209885  14.0709562   4.1601648
  31.3409767  14.8537264   4.6947989  43.4934464  62.7374268  76.5336151
  43.7764740  63.4964333  76.0236816  43.0974312  62.1503639  75.8896027
   4.7209415  14.5232868   9.4198503   4.9840579  14.3373299   8.5185061
   5.4753947  14.9716654   9.8019352  55.4698677  70.4825592  24.9050694
  55.2538872  71.1763306  24.2819614  54.6572037  70.3330841  25.3882542
  41.3212128  67.0894089   8.5342894  41.8241272  66.4151764   8.9911451
  41.8094864  67.2459717   7.7260146  79.1159515  63.4644508  72.4650116
  79.3680725  62.5828629  72.7397308  79.6582870  63.6399841  71.6960526
  73.5835876  64.4205780  32.0994873  73.2725525  65.3232269  32.1682205
  72.8879166  63.9628143  31.6275578  72.1898422  28.8704987  68.6078568
  71.6112823  28.1118565  68.5306778  71.6503143  29.5416393  69.0258331
  26.5849724  47.4658012  56.2147217  26.7996521  47.3114853  57.1346817
  25.6291714  47.4258423  56.1818542  34.7052269  53.8384819  80.6379166
  34.8194618  52.9933548  80.2032471  33.9516029  54.2334290  80.1993942
  68.6907196  17.5747643  16.5195694  69.6436386  17.5523052  16.6071625
  68.5389633  17.6811638  15.5804853  46.7360802  43.6357536  11.8790436
  46.8718491  44.2548141  11.1617126  46.0287628  43.0673828  11.5742683
   9.7140970  29.9427032  78.4427490   9.1710558  29.1544533  78.4428024
   9.1648684  30.6119003  78.0343933  73.7425003  27.4885387  70.6392288
  73.0627975  28.1490993  70.5054550  73.9361267  27.1627140  69.7602615
  77.6545181  25.6059761  50.3919640  76.9022827  25.0566273  50.1715240
  77.3044434  26.2598648  50.9970360  50.2760925  19.3188305  75.2516632
  49.7536087  18.5182648  75.2032623  50.5913582  19.4534740  74.3579559
   7.0756259  60.4995537  24.5194874   6.9720340  59.8891258  25.2494717
   7.4221745  61.2964020  24.9209442  35.0650101   3.7442696   7.1107817
  35.1586266   3.1420562   7.8488917  34.3797531   4.3539577   7.3845258
  65.6623764  27.4961014  63.1244507  64.9937210  26.8699188  62.8469086
  65.2326813  28.0221348  63.7988968  24.4919682  13.3744764  80.9384232
  23.9651814  14.0304108  81.3950195  23.8509979  12.8191538  80.4945679
   4.4056730  19.4850655  82.3777618   4.7373252  20.0976486  83.0342560
   3.5030010  19.3126106  82.6454849   1.8244538  35.5400887  55.6780548
   2.7270663  35.8200912  55.8301163   1.8178698  34.6130714  55.9164314
   0.3950127  68.7430725  22.5752907  -0.2747483  69.2703323  23.0107746
   0.2706034  67.8609695  22.9255047  49.3068352  39.5808640  52.0196190
  48.6334343  39.8226242  52.6554756  48.8680267  38.9714851  51.4260406
  51.9181595  36.2971687  18.6504097  51.0631790  36.7143478  18.5445709
  51.8742218  35.8752670  19.5084896  59.2945709  71.1751099  18.8009338
  60.1171417  71.0771637  19.2805328  59.5618057  71.4135971  17.9132748
  50.6956139  26.9456196  69.3914871  51.4471397  27.3403587  68.9491959
  50.4125938  27.6089096  70.0209122  49.3903656  51.3950119  47.8606453
  50.1005211  50.7627678  47.7502556  49.2611580  51.4471436  48.8076477
  66.5595169  25.7376728  73.0418243  66.6660461  26.5455074  73.5441055
  67.0613708  25.8860245  72.2403488   1.3475037  69.8807755  70.5328979
   0.5248320  70.1478882  70.1229095   1.8798245  70.6762466  70.5422134
  26.1653957  45.1003342  62.9431267  26.4582081  44.3706284  63.4890442
  25.5028992  45.5445480  63.4722786  79.5107422  49.1726990  86.4214630
  80.3581085  49.4969101  86.7265854  79.0082474  49.9634438  86.2253723
  40.6286354  51.2000656  52.2806892  41.1509285  51.9997673  52.2180748
  41.2741623  50.4984779  52.3661423  22.5317726  68.4359589   8.2062311
  22.0577126  68.1461182   8.9856510  22.0910625  67.9948273   7.4800014
  67.9630890  46.2977715  11.5824375  67.0430145  46.5307999  11.4583817
  68.2030792  46.7046928  12.4149342  15.0035915   1.4255590  87.2055359
  15.1833029   1.7381952  86.3188553  15.8681202   1.3255304  87.6040497
  76.5424652  61.8757629  11.2894993  75.9540024  62.6122284  11.4555130
  76.0701523  61.3284988  10.6620817  83.6070404  68.2636337  32.5649872
  82.6600494  68.1552048  32.6526718  83.9696884  67.8397903  33.3428459
  73.3033524  71.3062057  39.8808174  73.4264984  70.5098877  39.3641472
  73.7279358  71.9931641  39.3669662  32.2707558  43.9395866  55.2037354
  32.9092369  44.5887451  54.9085007  32.3522568  43.2210464  54.5766068
  19.1607761  19.5045071   4.9023433  19.4081287  18.9991722   5.6767364
  19.6857185  19.1306076   4.1946254  49.9249611  24.7972794  23.0896816
  49.0988922  25.2796593  23.1236172  50.1231651  24.5970764  24.0044842
  32.8216400  65.1600418  11.7132616  33.0896492  65.4743195  12.5767603
  33.1501541  64.2618942  11.6726885  20.5609226   1.5958656  49.9488487
  19.7316513   2.0626779  50.0519524  20.4361801   1.0554527  49.1687050
  45.2775879   9.9566708  39.8991394  45.2185669  10.8596144  40.2112961
  44.3849831   9.6189432  39.9728394  70.1132736  37.9930038  36.2521477
  70.4139938  37.7047577  35.3903389  69.3161469  38.4918022  36.0731926
  57.6469498   7.4815731  26.8216934  58.2137413   6.7432923  27.0451279
  58.2099648   8.2507496  26.9089546  64.6386261  44.2644196   6.6173129
  64.0052032  44.9115372   6.9275537  64.5464172  43.5293121   7.2234011
  36.4507332  38.3596077   1.3003477  36.5157051  39.2430267   0.9376139
  36.2611618  38.4952278   2.2287333  19.3094025  21.9050903  82.4494858
  19.8425922  21.1848316  82.1130905  19.0282955  21.6106720  83.3158188
  61.5953102  35.5324478  41.6014061  62.4772339  35.2850647  41.8793297
  61.6646004  35.6405487  40.6528587  54.3083420  36.1237144  27.5343647
  54.0369987  36.7495155  28.2059116  53.9918251  36.5009460  26.7135448
  26.4505482   0.3142067  61.3576317  26.7968788  -0.2057750  62.0828285
  27.0031319   0.0822240  60.6112633   3.2298625  54.4108505  83.2921295
   3.0442114  53.4832153  83.1463165   3.3415377  54.4866905  84.2397614
  72.9087753   9.4619112  79.5864029  73.1210022   9.0182724  80.4076080
  72.8733673  10.3900490  79.8177872  20.2554607  32.7806854  65.0900574
  20.9212418  32.1428719  65.3472748  19.4937744  32.5614700  65.6267242
  63.0376854   5.4127436  38.2217140  63.3991966   4.6790581  38.7189560
  62.1958351   5.0915112  37.8987160   2.5509005  51.9899673  46.4692154
   1.9936907  51.2118111  46.4841614   3.0584254  51.9056625  45.6620331
  45.1536636  61.2276421  51.6501808  44.2271080  61.4676476  51.6390648
  45.5687408  61.8998718  52.1906013  69.4995041  34.4179993  62.1508293
  70.2886276  34.0740128  62.5693817  68.7973633  33.8422165  62.4536629
  51.3115501  69.4311752  12.1244011  52.0759315  69.9673080  12.3353701
  51.6694260  68.6787033  11.6532946  18.3981476  38.0254517  55.5083122
  18.9367523  37.5210304  54.8986397  17.6063614  37.4993362  55.6201515
  14.7147007   0.6729976  29.5357971  15.5067396   1.0214907  29.1265774
  14.8364735   0.8365672  30.4710236  57.2044373  21.1843967  38.6319962
  57.4504623  20.2818928  38.4290466  57.8020210  21.4436054  39.3333778
   7.0601902   8.5534334   5.4622245   8.0133066   8.4652433   5.4671187
   6.8870411   9.2463741   4.8249764  23.5613461  16.2048645  15.4366970
  22.8439960  15.6962976  15.0585423  24.3295326  15.6414633  15.3434296
   3.7476735  39.3330078  54.6294670   3.8084381  38.7304688  53.8881912
   2.8127019  39.5223923  54.7081642  57.0969810  50.2252502  78.8070831
  56.4389381  49.8303337  79.3791428  56.5888977  50.7079430  78.1550980
  14.9408464  58.9491920  39.0491600  14.4124403  58.6885605  38.2947807
  14.5066690  59.7327347  39.3864746  61.3901176  29.6843929  17.0641270
  62.0954094  29.9776421  16.4872379  61.8343811  29.4167309  17.8686237
  23.8525162  65.3980331  10.5013227  23.2573738  66.1346283  10.3618050
  23.3709469  64.6365051  10.1782236  36.8847504  54.3778038  82.2281265
  36.5770988  54.9913368  82.8953323  36.1012650  54.1606483  81.7229309
  40.8778076   9.7771244  63.8827515  40.5898933  10.6491947  63.6128731
  41.8333740   9.8323565  63.8913002  42.7096519  70.6347275  68.4901505
  43.1316719  70.1376572  67.7893982  43.1710587  70.3671722  69.2849731
  31.7485485  50.7918510  54.7285385  32.6740456  50.5811844  54.8522606
  31.4067421  50.8997459  55.6160965  26.3264446  43.4504356  14.0807848
  26.4998970  43.6212044  15.0065203  25.5371342  42.9089394  14.0809107
   0.0001988  63.5041122  14.5626440  -0.1520533  63.1674500  15.4456558
   0.7517777  63.0052986  14.2424183  20.3310547  47.2235413  39.8734283
  20.7771358  47.3837013  40.7050476  20.6450901  46.3632660  39.5949783
  29.7990456  47.0331802  64.8567505  28.8471165  47.1191559  64.8050766
  29.9510460  46.5305138  65.6570358  35.2744102  43.4260254  65.3267746
  36.1319542  43.0041428  65.3802719  35.4665604  44.3271179  65.0672607
  36.9662247  42.4362907   9.7405128  37.2168236  42.0480690  10.5787945
  36.0392113  42.6513023   9.8437233  65.7377701  22.6717167  34.3411636
  65.2023926  23.4610729  34.4218979  65.4475555  22.1108665  35.0605049
   6.3242722  65.7576599  82.0341721   5.6307998  66.3296814  82.3629837
   5.8764744  64.9410477  81.8131485  45.6605988  51.7025642  35.4751396
  46.2791252  52.2793579  35.9234314  46.0796776  50.8421555  35.4925575
  49.0660362  43.6112328  82.4516449  48.5354691  43.6009903  83.2482834
  49.5970001  42.8167419  82.5072708  68.7728577  56.1797981  35.1544647
  68.0393295  56.3164635  34.5548897  68.8660889  55.2285423  35.2059479
  74.0178375  39.1525536  26.3539505  74.2177582  39.2127762  27.2881012
  73.0615997  39.1632462  26.3124905  18.7944126  44.9726143  20.5902157
  18.3847046  44.5398521  21.3392754  19.5301933  44.4056702  20.3590527
  63.6999397  10.6859732  15.6978006  64.5938187  10.9730406  15.5112438
  63.3995895  10.2907276  14.8793859  62.6511421  53.6142273  27.7170296
  62.1771355  53.7086182  26.8908100  62.4529762  52.7236099  28.0064507
  62.7639732   5.6159754  74.4904938  62.7890129   5.3812547  75.4181290
  62.6218376   4.7851148  74.0369492  30.8253860  39.1852760  28.7364807
  31.2332687  39.4285202  29.5675640  31.3014565  39.6920738  28.0786457
  44.8497314  15.0184917   0.2312413  45.4207306  15.0817223   0.9968745
  45.2502327  14.3387289  -0.3107480  75.5916672  47.8013229  30.2560444
  75.5797119  47.1769409  30.9814644  74.6681366  47.9521675  30.0546265
  62.2956085  40.7790108  70.2842102  62.0052872  39.9052429  70.5458832
  62.2411385  40.7733002  69.3285751  53.9684868  13.9454279  24.2182770
  54.4547310  14.0092869  23.3962555  54.5232315  14.3892088  24.8597965
  72.1196213  22.8954391  12.5235910  71.5359116  22.2641068  12.9442301
  72.8132858  22.3603115  12.1379766  47.8860283  46.0119133  64.2149048
  47.2788086  45.5122070  64.7606277  48.5346375  46.3542709  64.8299942
  52.3341026  70.1624374  64.4837265  52.4512520  70.0531235  65.4274216
  51.4643669  70.5519409  64.3938751  21.3493233  47.4365120  56.3671532
  20.9023685  46.7420006  55.8832970  20.7094536  47.7249832  57.0179863
  38.2944908   1.2691016  13.3318853  37.6414909   1.9069352  13.6199703
  38.2076530   0.5422192  13.9485970   7.2273993   4.8980417  78.5974884
   7.6747122   4.6892490  79.4175797   7.3886876   5.8326135  78.4678955
  20.6333923  66.1884232  62.4330025  20.7231369  65.2842636  62.1318893
  19.8192616  66.1935349  62.9363899  58.4156265  67.0059967  76.0901337
  59.3142700  67.0142822  76.4196777  58.1297722  66.0987167  76.1967697
  48.8518982  50.4480057   1.8869320  48.3123436  50.9553185   2.4933531
  48.6603889  49.5351830   2.1021214  43.0703545  58.4268112  17.1650162
  42.5138931  59.1780243  17.3705921  42.4921303  57.6691284  17.2533569
  41.1372986  44.0640831  37.5435677  41.3563499  44.6118622  36.7897873
  41.9746437  43.6924133  37.8209572  53.1843491  71.2500153  73.0232468
  53.7492065  70.4976044  72.8470459  52.9964676  71.1942673  73.9601669
  15.5406961  18.3983383  54.3724899  14.6377592  18.7112045  54.3172569
  15.7877836  18.5399914  55.2863350  40.8688049  38.5188370  83.8713608
  40.0133438  38.3445740  83.4788589  41.0514984  37.7431831  84.4016495
  85.1753235   2.6990130  19.6388779  85.3527374   1.7776834  19.4493809
  85.7994156   2.9262531  20.3281593  53.8598099  40.1755219  37.7554893
  53.4481659  39.4740944  37.2507362  53.7289658  40.9611893  37.2246017
  77.9045563  53.1481934  43.0538635  77.8826141  53.4906120  43.9474525
  78.6719666  53.5611496  42.6579018  41.5444527  36.3384018  80.7101746
  41.7264137  35.5797844  81.2648163  41.3738861  37.0504570  81.3267136
  36.3588829  67.0699844  88.1746521  36.1877441  67.9600220  88.4825211
  37.3002625  66.9501114  88.2998428  23.3109379  22.9006615  85.8446960
  23.0644760  23.1590328  84.9565887  24.2475224  23.0908546  85.8982620
  42.2638130  21.2476788  30.8184452  43.0184059  20.6740513  30.9517727
  42.3230171  21.8896732  31.5259552  73.8469086  40.5072098  61.7877998
  73.4903336  39.9058800  61.1339722  74.7135544  40.7381668  61.4533997
  53.9294243  40.5659714  31.9254150  53.8815041  41.3224487  32.5099487
  53.4297600  39.8841934  32.3745689  57.3268166   8.6740217  22.7910213
  57.0996971   9.3345613  23.4454956  57.2224121   7.8390298  23.2472229
   6.7203279  15.0933123  18.9169216   6.7884893  14.8635731  19.8436394
   6.2554646  14.3561783  18.5209827  29.4614353  46.0002213   0.0867324
  29.2620258  45.1320267   0.4370262  30.3193607  46.2149734   0.4528945
  17.1984787  53.8510590  20.0143871  18.1141167  54.0088997  20.2444382
  16.8887882  54.6905594  19.6744442  12.9635696   2.4169855  22.0089397
  12.8340282   2.5276537  22.9508553  12.2120705   1.8975183  21.7232208
   3.3918943  43.3098793  26.9168949   3.6912923  42.8300896  26.1446285
   3.6664686  42.7681732  27.6567574  25.1410255  50.1970291  41.0987282
  25.6017704  49.9034920  41.8847160  24.8990784  51.1037064  41.2874794
  41.9668694  58.5704689  81.3575745  42.1333427  57.6296768  81.4161072
  42.6352119  58.9671860  81.9162903  78.1749649  12.4201117  88.2804031
  77.7419357  13.0043583  87.6580124  77.4683304  11.8786230  88.6320953
  30.9008827  63.5289879  87.5969620  29.9730301  63.3521194  87.7520065
  31.1606750  64.0976791  88.3217621  36.5640793  36.9927940  36.6135864
  35.9871521  36.3028145  36.9411659  37.3930130  36.8486519  37.0700188
  22.3124218   6.8698997   7.0759315  22.6527023   7.1767063   6.2355089
  21.4841747   7.3373952   7.1840377  38.4935532  40.5016632  44.4571190
  38.4697227  39.5522194  44.3378716  39.3954697  40.7464905  44.2501526
  38.3144417  58.5122566  81.5656357  37.7696190  58.2661324  82.3131790
  38.0639038  57.8992233  80.8745117  53.2430687  70.0589676  58.6575089
  53.9313278  69.4346237  58.4279022  52.9837646  69.8136978  59.5456696
  25.0013790   8.9425449  84.4964600  25.7976189   9.3610792  84.8236618
  24.4010792   9.6687603  84.3276825   0.3260966  71.1378937  30.2915897
   0.7205546  70.8187561  29.4799309   0.3642657  70.3893280  30.8869247
  55.7217827  51.3554993  61.5670013  56.3395576  51.4003716  60.8372269
  56.2566414  51.0986786  62.3181343  45.3881569  32.5593185  69.4068756
  46.0785980  32.7281799  68.7657776  45.6356926  31.7282352  69.8121719
  64.2917328  12.5873251  64.9032516  65.0088501  12.6214371  64.2701645
  64.2021561  11.6578836  65.1138458  71.7734833  63.5134315  23.5160217
  72.3864899  62.8671494  23.8664169  71.7608032  63.3452873  22.5737915
  42.5678444  26.1089268   3.5673242  41.9915314  25.5084591   4.0401173
  42.0276146  26.4468079   2.8530266  28.5445385  15.0126848  10.9456549
  28.1682243  15.3766117  10.1442966  27.8060379  14.9537239  11.5517664
   0.6660536  22.9599400  76.9873886   1.2866144  22.2857056  76.7107239
  -0.0015737  22.4831429  77.4805069  71.4402924  21.7473087  21.5908680
  71.4949951  21.5457897  22.5250149  71.4157333  22.7034512  21.5531483
  52.7018471  35.2589645  13.7708368  52.1191673  35.0174942  13.0508308
  52.1179810  35.3892365  14.5180702  52.3917770  44.5856285  64.9568100
  52.5575256  44.8158722  64.0426178  53.2492065  44.3334618  65.2995377
  38.2850647  44.9819832  49.7366295  37.5380821  44.5451508  50.1458130
  39.0467911  44.4873314  50.0388374  24.5915222  31.9176445  62.4086494
  23.8899918  32.4507065  62.7827263  24.7458248  32.2975807  61.5437393
  52.2703667  56.4982300  12.5394411  52.3890648  55.8580017  13.2410460
  51.3514977  56.7581787  12.6053362  36.6564026  32.4218826  18.9528389
  36.4156990  33.3445854  19.0359898  37.5375061  32.3698883  19.3232231
  18.7188454  55.0308189  72.9907761  17.9781799  55.1626854  73.5825958
  18.7919922  54.0801201  72.9067688   4.2565475  57.6611938  78.8544083
   4.2695780  56.9595222  79.5053482   4.6713014  57.2784195  78.0813065
  73.8152618  53.4977455  73.3911133  74.7472534  53.6234970  73.5694427
  73.5333252  52.8492546  74.0362473  63.3854256  43.1484947  45.2708511
  62.8669739  43.7466888  44.7327003  62.7440414  42.5412407  45.6397667
  59.1316528  44.7672386  69.9486618  59.0733833  43.8208618  70.0798416
  59.6714973  45.0770454  70.6758652  18.4097061  47.9242363  23.1132259
  18.5717735  47.7136536  24.0328026  18.4341927  48.8804970  23.0785847
   7.9059095  66.0261612  67.9030914   7.2806425  65.8186951  67.2086639
   7.4134302  65.9005127  68.7142105  35.7135315  30.8477230  16.5491295
  36.1642342  30.3356838  17.2206306  35.4478340  31.6502953  16.9980354
  10.7941408  50.8875389  22.7900677  10.1971426  50.3009987  22.3255310
  11.5340605  50.9981842  22.1929855  68.2541199  31.7322044  34.8029709
  68.8474197  32.4773102  34.8980560  67.9035873  31.8167896  33.9162865
  52.8036613  31.7443981   2.3538978  53.0792694  31.2663193   3.1360164
  51.8604774  31.8632259   2.4657745  54.4238739  39.8552170  83.5051422
  54.9317093  39.0867500  83.2447739  53.5112381  39.5815392  83.4133606
   6.6827750  12.3163166   0.8637267   7.4732852  11.9666147   0.4525897
   6.9748225  13.1145325   1.3039447  24.6950283  22.5936890  78.9693756
  25.3582973  22.0907974  78.4967117  23.8698483  22.1541805  78.7640839
  52.5810204  52.2824593  48.3852768  53.2294579  52.7543373  47.8626976
  52.5795403  51.3967285  48.0223579  29.2317543  44.0347290   6.3417902
  29.2238865  44.9018059   6.7471876  28.3603687  43.6799889   6.5180855
  40.8932381  21.2561111  12.2691851  41.0123596  21.9092255  12.9587383
  41.3219910  20.4699230  12.6072855  55.8291130  55.9521866  13.3655977
  54.9396935  55.6370659  13.5264120  56.2876472  55.8079529  14.1933527
  50.8048019   8.4831419   5.0104909  50.1731148   8.2827587   5.7011805
  51.3158646   7.6797018   4.9128709   9.7972803  50.8170395  54.4663429
  10.5036497  50.3106880  54.0652390  10.0779676  51.7282562  54.3819160
  24.4593754  70.2935791  29.8099518  24.5992470  69.6166000  30.4720440
  23.6278152  70.0580521  29.3985329  14.7660265  21.6068878  28.9960003
  14.8375425  22.5219765  29.2675266  14.9105701  21.6257668  28.0499649
  31.1353493  63.4334755  14.8671465  30.7014732  63.4368896  15.7203588
  30.7518559  64.1760178  14.4004574  66.5555954  61.9515839  84.6682205
  66.5178528  61.2535896  85.3221436  67.2510681  61.6808891  84.0688248
  50.3204880  48.5669060   5.3740048  49.3754616  48.5887222   5.5246153
  50.6348152  47.8521233   5.9276428  44.7860680  70.0183029  50.0146179
  43.9851608  70.4352188  50.3323593  44.7556915  70.1338501  49.0649033
  43.3326340  23.3948250  35.2979889  43.5747719  22.8009834  34.5873909
  42.4125671  23.6018333  35.1341095  29.2630043  20.8906765  71.3339767
  28.8858833  21.5519905  71.9142075  28.6516857  20.8401279  70.5991516
  55.9975281  35.5273476  70.2208481  55.7828712  34.8754692  70.8880920
  56.8368301  35.2370987  69.8636932  12.0690222  54.4737358  20.3258438
  11.3800688  54.4241676  20.9885044  11.8814507  53.7479897  19.7305756
   3.4807115  33.5577049  84.3977432   3.5147004  34.5020485  84.5503540
   2.5604601  33.3274002  84.5255280  47.9305763  59.1119537  24.9440212
  48.6553764  58.5026779  25.0843105  48.1587410  59.5739136  24.1373215
  58.1795158  57.6432037  70.3595352  59.0924530  57.7106781  70.6392212
  57.6821365  58.0611076  71.0625381  18.1927509  66.8181915  63.3573418
  17.4115582  66.5305023  62.8848953  18.5534420  67.5217514  62.8177719
  57.9806786  10.3336649  56.4250870  57.3269386  10.6028109  55.7797852
  58.5601425   9.7411251  55.9461823  19.9482937   4.6555061  10.9705496
  20.0966568   5.3001180  11.6624279  20.6805515   4.0443840  11.0515385
  13.1728268  67.9873123  48.6797714  12.8039789  68.8266449  48.9549103
  13.6158390  67.6531754  49.4597206  27.9578438   3.1563487  22.4601517
  27.3570595   3.5739222  21.8429623  27.4650974   3.1093097  23.2794323
  61.3699226  57.2905579  66.2472916  61.9236145  56.6090240  65.8662796
  61.9435806  58.0535583  66.3178406  14.1656961  27.4596806  61.8554955
  14.8737373  26.9222641  62.2105904  14.6105490  28.1277657  61.3339577
  31.7823982   1.7243801   5.7693233  31.2151222   2.4206736   5.4382553
  32.6255913   1.8797231   5.3437376  23.6443176  62.2026443  19.8306789
  22.9523125  62.1798935  19.1697369  23.5136585  63.0345764  20.2857075
  32.8220596  35.7112579  62.9421310  32.8988571  36.4665146  63.5251579
  31.9933205  35.3010597  63.1894417  67.0696487  23.1112080  62.1555138
  67.2878342  22.7983742  61.2775841  66.1266022  22.9670219  62.2336655
  59.9064789  26.5715961  74.0972748  60.6293297  26.6012287  73.4705048
  60.2000465  25.9601822  74.7727203  43.0577431   1.4977061  33.1003990
  42.7001457   0.6215100  32.9567490  42.4281654   2.0849047  32.6819992
  49.2701683  67.8442307  21.5805759  49.4600105  68.7323074  21.2780590
  48.8393555  67.4245148  20.8359451  62.1686821  53.5240517  49.5335464
  62.7366066  52.8511238  49.9088593  62.1706085  53.3422318  48.5937767
  27.8597336  28.3455658  84.8597260  27.0841846  28.0337677  84.3933182
  28.4396534  27.5848770  84.8955002  44.5769157   6.0992913  16.4015160
  45.2971992   6.7058663  16.5732441  44.6676292   5.8758688  15.4751873
  64.5158539   0.2646298  60.2128296  64.2829895   1.1799371  60.3684502
  65.4730225   0.2583693  60.2087364  14.2604494  47.9954376  70.6929092
  14.6922102  48.1773567  71.5276108  14.9676647  47.7093544  70.1147766
  85.7070923  62.2053337   3.2188447  85.5503998  62.3523865   4.1516113
  85.2718811  61.3737373   3.0310485   5.8701239  64.0872955  55.7735176
   6.0272732  63.1471710  55.6857529   6.7273011  64.4542389  55.9899216
   1.7315406  29.1557426  15.6279402   0.8559297  28.7757969  15.5559711
   1.5878636  30.0152454  16.0239735  78.7820816  49.8862534  76.3918610
  78.8613892  49.1989212  77.0533066  79.6193008  50.3490105  76.4257355
  39.6394272  31.4013805   8.8467522  39.9586525  31.6604805   9.7111568
  39.3925819  30.4821415   8.9482250   2.0662460   6.9128203   5.1420503
   2.8328621   7.4424949   5.3610864   1.9094310   6.3835688   5.9240565
  64.5077667  61.2485352   5.4744782  65.1056519  61.9881668   5.5827169
  63.7947159  61.4251595   6.0881500  46.9429054  16.7423840  87.6044693
  47.0329094  17.6938038  87.6586151  46.4518318  16.5031414  88.3905029
  43.7022209   8.4824800  50.1494141  44.5953865   8.2127810  49.9355202
  43.7048340   8.5865641  51.1009369  45.4996376   1.5168004  69.2213669
  44.6588478   1.2818474  68.8288116  45.6943054   2.3851221  68.8687286
  42.6998291  35.5341415  55.7376060  41.9814339  36.1021538  55.4592056
  43.4113235  35.7318916  55.1285896  66.5491409  56.6571541  58.2362938
  66.8046951  56.2912521  59.0830765  65.8547668  57.2820358  58.4451256
   8.8266802  65.7257385  12.7903223   9.3791428  65.3023987  13.4474363
   9.3812370  65.7832642  12.0122557  65.8145752   4.1543994  27.9966831
  66.4109192   3.4074414  27.9450779  66.2533798   4.8458824  27.5011692
  16.2093754  19.0933666  88.1900330  15.4909439  18.5284176  88.4744949
  16.5048065  18.7081070  87.3650894  16.7531509  43.2819862  80.6679001
  16.5842533  42.3988152  80.9960938  15.8925667  43.6085548  80.4052582
  60.9069595  68.6457901  28.2564754  61.1887970  67.7589874  28.0320301
  60.5502205  68.5670166  29.1412144  14.9764824  37.7221985  70.2380295
  14.4493141  38.0889664  69.5282364  15.8497810  37.6201019  69.8596649
  19.2986755  65.4941177  69.1098785  19.3187485  64.8445663  68.4070969
  19.1519432  64.9820557  69.9051743  52.2297783  48.5582466  59.9937172
  52.0259476  49.1159782  59.2429733  53.1827545  48.4703751  59.9750786
  76.8332062  28.7349968  39.2871017  76.0971298  28.2808723  38.8769875
  77.6094513  28.2979622  38.9368477  80.1176453  11.8548861  18.3816166
  80.9107056  12.3570709  18.5689507  80.3340683  10.9595146  18.6418133
   3.7010558  35.4862518  68.3136139   3.6490617  36.3750916  67.9622040
   4.2909522  35.0266075  67.7161407  50.2360115  49.3046608  51.4979248
  50.4957848  50.2224083  51.4173660  49.4723091  49.2209091  50.9269829
  20.7736282  43.9013405  43.3423309  21.5018139  43.2801094  43.3352089
  20.1166496  43.5068741  42.7687416   0.7848872   8.9128923  67.1850433
   0.2530909   8.1329346  67.0266418   0.3087128   9.6199284  66.7496185
  38.9322853  45.9383354  17.7535229  38.1676064  45.8938293  18.3275604
  39.4567909  46.6560593  18.1084862  14.8583231  55.3514824   9.2098131
  14.3232174  55.0342178   8.4823275  15.2815285  54.5659218   9.5562563
  52.3275223  23.2911987  42.0741882  51.8468170  24.0457516  42.4144859
  52.8178940  23.6362591  41.3280678  79.6647873  52.9953918  13.4348755
  78.8034668  52.5923729  13.3256073  79.4760208  53.9010162  13.6807213
  47.0666428  34.4189224  40.0130081  46.8578415  33.7015800  40.6113815
  47.9372940  34.2052574  39.6775284  79.6535645  32.3056450  79.8361282
  80.3616562  32.1142960  80.4511261  79.4756088  31.4683628  79.4077377
  50.8426018   7.4005485  63.7548981  50.5807800   7.9484258  64.4948349
  50.4420204   6.5497060  63.9333076  72.7012787  61.2249451  12.5623102
  72.8449783  60.2954788  12.7402935  71.8449554  61.2575417  12.1358299
  17.9429226  63.2508125  13.4236078  17.8258362  62.7348824  12.6258993
  17.6052475  62.6909142  14.1226931  53.5975304  13.7472515  86.2877502
  53.2199097  13.4329662  85.4662476  53.2066078  14.6115408  86.4158630
  36.9131165  42.4033585  85.2600098  37.2774162  41.7512321  84.6614685
  35.9755783  42.2115288  85.2814178   3.0643489  57.5982933  85.8741150
   2.5590661  56.7961502  86.0063705   3.5512588  57.7119637  86.6903458
  28.5503883  63.5364418  55.1317406  29.2911549  63.0513382  55.4952965
  28.9025459  64.4066315  54.9447136  59.2397041  28.3776741  79.2954788
  60.0748367  28.7930317  79.0803986  59.4172287  27.4388561  79.2376938
   4.7574987  47.3818245  89.2049179   4.4018450  48.2696533  89.1661682
   5.5147963  47.4014244  88.6198120  55.6676865  65.4036484   3.3984826
  55.9396400  64.4974365   3.2534091  54.9093513  65.3361816   3.9786611
  66.3383102  50.6358299  74.0165253  66.4399643  50.8915901  73.0997467
  65.4324493  50.8606873  74.2288818  23.9913120  62.8312912  60.0266113
  23.5819492  63.5615883  59.5625877  24.8765202  62.7841034  59.6654892
   7.7623243  39.1497726  52.1794624   7.1674376  39.8885117  52.0505981
   7.6275210  38.5966530  51.4099693  80.6995468  44.3774567  52.5001259
  79.9108963  43.8998985  52.7574158  81.4220276  43.8184242  52.7860222
  74.0426407  24.7431297  76.9988251  74.9471130  24.4811954  76.8269348
  73.6431198  23.9732113  77.4035950  65.9627304  29.0230122   2.4140594
  66.0134048  28.3445625   3.0873873  65.4304504  28.6330032   1.7206576
  44.6464577  22.5810833  25.0843201  43.8270912  22.0937843  25.1704082
  44.4234276  23.4733963  25.3493996  64.7199707  10.7079306  84.6902924
  64.1705322  11.2523069  84.1263733  64.2931595  10.7428112  85.5463562
  28.5979538  60.3362885  87.6492004  28.8786488  60.7171745  86.8171158
  28.3237762  61.0870514  88.1759033  54.5334816  40.7481499  26.6412582
  55.3679390  40.2794266  26.6268597  54.7757263  41.6644058  26.7755032
  58.8734665  34.6663437  36.4122009  59.7018929  35.0945206  36.1963158
  58.3748207  35.3334999  36.8838844  41.4707489   3.2112734   5.6491137
  41.3207436   4.1516953   5.7457414  41.6139069   3.0867231   4.7109103
  14.3139877  33.8843803  75.1877136  13.6694622  33.5974655  74.5408020
  14.4072437  34.8242683  75.0323410  78.5792999  14.3012772   4.7068634
  78.6858063  15.2509623   4.7615266  78.3351669  14.1397047   3.7955315
  12.1877337  39.5028534  55.0719795  11.2662611  39.5445175  54.8162766
  12.2266207  39.9727402  55.9050026  86.1659546  32.3472290  54.4311028
  85.2340775  32.1372643  54.4922867  86.4843369  31.8138371  53.7028465
  83.6923218   7.3608999  43.0933495  84.0797577   6.8673472  42.3704834
  84.4384689   7.6173024  43.6353455  31.5602207   7.2926817  40.2523994
  30.6429729   7.2711883  39.9795876  32.0489807   7.4205670  39.4393883
  57.7842064  20.0412369  87.9661484  58.6468735  20.3725719  88.2156448
  57.5250092  19.4761124  88.6939392  25.1547241  56.4086952  62.0308266
  24.4765472  56.5942116  61.3812943  25.9517460  56.2832680  61.5157967
  62.0956802  55.4739838  57.3456230  62.2942886  54.8339691  58.0291214
  61.1402321  55.4738998  57.2877464  45.9068680  37.3648987  26.9290199
  44.9895668  37.6349373  26.8857536  46.2679176  37.6056633  26.0758476
  77.0976944  27.9804173  72.1761093  76.8417969  28.7684059  71.6967087
  76.2772903  27.6402588  72.5331268  53.5615082  38.1747208  65.3074112
  53.4208946  37.2938042  65.6544647  52.9260597  38.2562180  64.5962143
  81.5552979   8.3986139  44.2696342  81.2188339   7.5031743  44.3044891
  82.3327713   8.3408928  43.7142639  34.9316826  68.5328369  73.2446060
  35.0583916  69.0550613  72.4524841  35.5595436  68.8922195  73.8713913
  33.4865303  12.4629021   0.7612444  34.2881737  11.9400883   0.7450615
  33.5382042  13.0050154  -0.0259502  49.8126030  70.6229401   3.6844223
  49.5512657  69.8252182   4.1444030  49.5006180  70.4959106   2.7884533
   8.1231928  53.6935692   1.5401006   7.9972582  54.6406441   1.5985750
   8.4420071  53.5488930   0.6492254  20.5470924  25.9956493  86.9535904
  20.7755127  26.8827400  87.2313080  20.3662758  26.0769386  86.0171509
   5.1690516   0.9672549  58.7059860   5.6816783   1.0492839  57.9017982
   5.2444224   1.8238349  59.1264877   6.2923861  15.5325136  14.5646906
   6.5802116  16.1689529  13.9102182   5.3366456  15.5793333  14.5402012
  14.3825283  44.3634834  69.2659836  13.9975796  43.4926682  69.1673584
  14.6265860  44.4142036  70.1901550  29.1627254  55.2932014  81.9553452
  29.0188255  54.4520073  82.3888474  28.9987621  55.9450111  82.6368866
  57.0507240  35.2462349  49.7702675  57.3180885  34.3338280  49.8809891
  56.9505539  35.3533669  48.8243713   1.4336423  23.1773529  35.4303436
   1.5935591  23.2331753  36.3724403   1.5698230  22.2538548  35.2185974
  53.7994881  45.4034882   1.9363441  53.2946663  46.1803894   1.6959064
  54.6806679  45.7346535   2.1097994  58.7033043  53.3576775  48.6569710
  59.1730919  54.1221199  48.9903755  59.2364693  52.6110535  48.9299545
  49.1642494   5.7989078  61.0463371  49.6864700   6.5823474  60.8738937
  49.7267151   5.2520719  61.5948181  60.8433495  23.7249985   2.4369514
  60.7198181  22.7901173   2.2727296  60.7662888  24.1319923   1.5740210
  69.6708374  56.3486061   6.2200103  69.3966675  56.3744888   5.3032794
  68.8794327  56.1044197   6.6998849  65.4599762   3.9099433   7.2718167
  65.5562515   4.2811580   6.3947973  65.8522949   4.5621080   7.8523326
  78.6031265  13.7079954  64.3700027  79.0876770  14.3415995  63.8408623
  78.8979187  13.8692226  65.2662888  13.7904015  29.4900742  76.0315399
  14.0313244  28.8709965  76.7206879  14.5558367  29.5192986  75.4575272
   6.5985656   1.9526925   9.0050402   7.1996017   2.1244664   9.7299414
   5.9196520   2.6216793   9.0931578  58.3288116  43.3718758  20.7074394
  57.9713593  42.5176201  20.4651451  58.8821220  43.1930733  21.4677734
  34.9044571  30.6910801  79.2104874  34.0715866  30.9157143  79.6253357
  35.4735870  30.4382210  79.9373856  56.2365685  15.4776726  47.7479820
  55.7564659  16.1963673  47.3366280  55.5825348  14.7885809  47.8647118
  13.1778011   4.6800184  77.6075287  13.5040455   5.5790529  77.5683746
  13.9291296   4.1415405  77.3589783  61.4425087   9.9648485  30.4037876
  61.3585396  10.0894737  31.3491192  62.2045403  10.4901657  30.1597023
  43.0953979  29.2192707  14.7965908  42.9917068  28.2739830  14.9057350
  43.2311783  29.3383713  13.8565855   0.6685884  45.5322151  39.2733917
   0.9862846  45.3360596  38.3920174   0.1403925  46.3233719  39.1670456
  11.8771324  63.9957962  58.0264435  11.9246607  63.4309731  58.7977715
  11.4594088  64.7972183  58.3418159  30.3655052  57.5249748  61.5105972
  31.2514782  57.2626381  61.7605286  29.9804287  57.8670464  62.3174019
  34.1366043  10.6273136  73.9281616  34.1592445  11.5838032  73.9572525
  34.3708572  10.4095211  73.0259857  56.6166420  10.1199884  47.4114838
  56.7709885  10.7253971  48.1366653  57.3730850   9.5335846  47.4238930
   2.7782853  67.5603714  69.7599716   2.1921453  68.3171005  69.7658157
   2.3210950  66.8992691  70.2797318  73.0978241  69.1411133  73.7693100
  73.5346222  69.9442291  73.4856873  73.0458069  69.2203217  74.7218094
  80.8134155  18.3457241  55.8615570  80.4035339  18.3845329  54.9974251
  81.7303543  18.1373405  55.6825790  53.3907967   1.1355286  17.5572968
  52.9784241   0.9116548  18.3915997  53.1921387   2.0636489  17.4333611
  82.1634521   7.6489758  12.6731043  82.1123428   7.7349668  11.7211456
  82.3864746   6.7296100  12.8189154  72.3824158  43.3466301  52.2317352
  72.6226654  42.4233780  52.1534958  72.3927231  43.5178261  53.1734428
  75.6642303  48.7168617  81.3375854  74.8827744  48.7213554  81.8903275
  75.7915268  49.6341057  81.0953217  78.0738449  10.6799393  78.7131119
  78.9809799  10.7678709  78.4205246  77.9914856   9.7601252  78.9648895
  80.6169662  11.8123970  77.6645966  81.5068665  11.9709902  77.9794846
  80.7355728  11.3685198  76.8248749   5.0405784  30.0416222  86.9464951
   4.7877975  30.6205826  87.6656189   4.9263220  29.1587791  87.2982941
  71.1844330  61.3416672  54.1840210  72.0904617  61.4697914  53.9030876
  71.2376785  60.6730003  54.8668671  28.2652283   9.3632326  14.2538986
  28.2018585  10.3105392  14.3756571  28.8738956   9.0745335  14.9339046
  13.7577114  41.3583336   5.7470732  14.2787819  42.0345459   6.1800337
  13.2446194  40.9633217   6.4520078  21.3230267  67.3258820  49.7007103
  21.8973503  66.8703537  49.0851784  21.4453678  66.8632355  50.5297012
  11.9585581  54.6041641  64.8259583  12.6641273  53.9821548  65.0034714
  11.9700985  54.7145157  63.8752136  50.0679436  14.8173494  43.5472412
  49.2245255  14.8760595  43.9960480  50.2647972  13.8807907  43.5288696
  49.1338196  52.3032684   4.8874879  49.0456314  52.2794647   5.8403192
  50.0723190  52.1983643   4.7311182   4.2471046  64.7284698  63.7646751
   3.9014902  64.4618301  62.9128075   5.0539522  64.2232513  63.8645935
  55.1909637  55.8353844  59.6547089  54.8254700  56.6689148  59.9511375
  55.0061378  55.8132019  58.7157860  79.0200195  55.3089027  14.4743786
  78.1370468  55.6571350  14.5981884  79.5982819  56.0095673  14.7759008
  68.9239807  16.0663261  35.5194702  68.4827042  16.2961864  36.3371925
  68.7406158  16.8008080  34.9336891  19.7383194  10.4413996  76.4919128
  19.4672222   9.5235920  76.4727478  20.3370667  10.5298214  75.7503510
  37.4165459  23.7465057  39.9936371  36.5861816  23.8651485  39.5324974
  37.4262581  24.4412231  40.6520500  13.1642981  66.0595932  11.0645781
  12.2982416  66.3964005  10.8349247  13.6240368  66.8132858  11.4344730
  46.4727478  54.6326752  70.2813950  46.5617523  53.8524055  69.7341385
  46.1340294  55.3036003  69.6886368  21.8824883  15.6993971   8.8709259
  22.7668972  15.4651375   9.1523075  21.4505749  14.8596163   8.7145557
  46.7268066  30.1947823   9.4020548  47.4689674  29.9298038   9.9453907
  46.5810432  29.4515495   8.8167410  72.0248947  61.7738495  45.1602249
  72.8958054  61.6193390  44.7943268  71.4353714  61.2758827  44.5939064
  64.2346497  23.8176060  66.9519806  64.3470306  24.2545376  67.7961884
  63.2908745  23.8409519  66.7939606  54.4310760  38.6450958  59.9825439
  54.7172279  39.0073967  60.8210487  53.5211487  38.3876839  60.1308784
  23.1220493  42.1414528  84.0774918  23.9384995  41.7023926  84.3159637
  23.3771858  43.0495071  83.9144745  44.1783981  37.5891151  45.0675011
  43.2597847  37.4875565  44.8183670  44.1538391  38.1265602  45.8591957
  51.7628365   1.9912937  65.7766724  51.2736588   2.5826590  66.3487091
  51.1166649   1.3455119  65.4909134  11.6646185  31.1171150  76.4592590
  12.5360193  30.7211723  76.4481735  11.1547241  30.5575504  77.0450287
  50.3600044  12.0792551  43.6859779  49.6564369  11.5898962  43.2596512
  50.9865189  11.4090786  43.9590645  69.0979843  33.2606964  31.9467697
  69.6277390  34.0251999  31.7206573  68.2065506  33.5049171  31.6978951
  27.2082005  31.6629105   7.5400133  27.3781662  32.5722466   7.7858725
  26.3242588  31.4886112   7.8632736  54.7011604  64.3594131  22.1091061
  53.9838638  63.8621254  22.5020676  54.7090263  65.1878891  22.5884800
  19.7297478  35.2492142  20.1889420  20.0859280  35.7205505  19.4358082
  19.9328232  34.3302536  20.0142784  44.5228195  34.0532951  38.6579208
  45.2319489  34.3706741  39.2170639  44.3652916  34.7685928  38.0416718
  83.4141769  62.0144119  86.7746506  82.6436386  61.5114403  86.5109711
  83.5867615  61.7345467  87.6736069  20.6512280  56.8611298  42.4447861
  20.4898682  56.5705566  43.3424301  20.8989811  56.0642319  41.9759598
   5.7887130  34.1382370  38.1884003   5.6872673  33.9753799  37.2506256
   6.3980260  33.4619598  38.4844017  29.0850258  44.4426117  57.0331078
  29.3322392  44.5090561  56.1107712  28.7026768  43.5690422  57.1162643
  68.1173859  71.3872986  55.2621956  68.3337326  70.4563446  55.3146019
  68.7890015  71.8193512  55.7899246  40.4815979  38.3779030  27.7056141
  40.0441933  37.5943947  28.0388165  39.7673950  38.9780655  27.4912567
  59.6959648  37.6534843   8.7804642  59.4883308  36.8946838   9.3257570
  59.9596672  38.3309402   9.4031544   3.4243805  58.0326195   2.2951195
   2.8883810  57.3695869   2.7302325   4.2258401  58.0729179   2.8169153
  82.5930710  68.2214432  28.6754398  83.4222183  67.8910217  28.3296547
  82.7710800  69.1370544  28.8903809  59.1013145  69.8102112  42.4182510
  59.6575279  70.3928452  41.9011536  58.6086044  70.3966141  42.9923592
  21.4637280  34.7525787  77.2877350  22.0348091  34.2525101  76.7046127
  20.5823307  34.6036835  76.9453888  77.1163788  23.8484173  68.4025955
  77.9494858  24.0494976  67.9762955  76.6223831  24.6672478  68.3612061
  11.5582533  43.4020081  23.2893600  12.4564075  43.0710869  23.2827168
  11.4620466  43.8164787  24.1467934  86.7328415   0.9237212  73.6416321
  87.0251617   1.2250308  74.5018616  85.7803421   0.8680151  73.7183075
  16.2994308  46.7026634   9.5840988  16.4672794  46.4464722  10.4909744
  16.8118839  47.5018959   9.4622326  23.9162159  27.7188892   3.9661939
  23.5236855  26.9383965   4.3573246  24.8566685  27.5406322   3.9681578
  19.8661270  47.2103119  50.5915375  19.9876671  46.5813904  51.3028145
  20.7255592  47.6173325  50.4822540  64.6073380  32.8140450  15.6225815
  65.2379379  33.4958954  15.3909426  65.1448441  32.0890274  15.9414349
  76.0554504  12.9813805  86.7883682  76.0466690  12.9135513  85.8336182
  75.5561905  12.2212849  87.0870895  27.5157509  27.9605026  77.8960800
  28.1670704  27.4749870  77.3898239  26.8665333  28.2364178  77.2490692
  50.2810936   8.3301649  23.2673378  49.9848938   8.3234959  22.3571434
  49.8146591   9.0650387  23.6656227  48.5751953  34.1147575  58.3511963
  48.4655609  34.2117424  57.4052544  48.6047211  35.0124321  58.6821709
  47.7441711   0.4407641  80.8517990  48.6261139   0.4979902  81.2194061
  47.1711349   0.3648408  81.6147537  54.9975739  65.4663925  35.2769814
  54.9325981  64.5119629  35.3097115  54.1433983  65.7751160  35.5791435
  59.2067909  24.5583591  53.3510895  60.0967979  24.6677265  53.6859894
  59.2270317  23.7220840  52.8858299   7.1897368  24.3278751  73.1400223
   7.7980886  23.5937729  73.0549774   7.3524590  24.8648586  72.3645172
  53.6829605  48.6147270  76.7834320  53.1287766  49.0644646  76.1455841
  53.0968170  48.4197350  77.5146255  17.9481506  52.7161217  39.6071129
  18.5223923  52.8820305  40.3547478  17.5883808  51.8442421  39.7702789
  14.6019650  12.8506508  19.7290287  15.1080799  12.1606894  20.1580181
  15.1707640  13.6198692  19.7607155  81.9073639  41.4224968  74.4260788
  80.9522705  41.4850922  74.4151154  82.0861206  40.5480537  74.7719421
  48.0184326  44.3782959  61.9651451  47.1221237  44.1691551  61.7022247
  47.9178314  45.0058823  62.6808586  77.4185104  36.2474403  74.2476044
  76.8186798  35.5255547  74.4355240  76.8498764  36.9644470  73.9669113
  19.6082592  66.6598511  65.5443802  19.6050129  65.7130432  65.6850433
  19.0915699  66.7855148  64.7484665  26.8075199  55.3217392  42.7043228
  26.2215176  55.6590385  43.3818665  26.2359161  54.8250160  42.1188622
  45.8479576   1.6976976   9.9835291  46.0112228   0.7551860   9.9481907
  46.0014305   2.0010757   9.0887442  48.8859367   4.8157482  14.4459333
  48.0251884   4.7917480  14.0278826  49.0421944   3.9133835  14.7244186
  19.9060593  66.9925537  42.2003288  20.2359104  66.1035995  42.3314552
  19.0508232  66.9965210  42.6301956  28.5075436  56.4915276  87.6932449
  27.7465229  55.9116325  87.7215424  28.1505222  57.3636093  87.8612976
  31.6300316  58.7894325  67.2672729  32.5339355  59.1009178  67.3138275
  31.1591187  59.4878922  66.8127136  15.9058418  10.3909035  14.6463137
  15.5901690  10.0892038  15.4981117  15.3477478   9.9419584  14.0113239
  81.7073746  24.1788673  85.1049042  81.7649765  24.6002941  85.9624100
  81.4987946  23.2653732  85.3004990  67.2797012  53.5725975  26.3697071
  67.2509766  53.9098091  27.2650833  66.8628845  52.7126389  26.4241581
  33.4171829  63.9564972  70.8419647  33.5547829  63.3363876  71.5580368
  34.2738571  64.3620911  70.7084198  79.8526611  70.4207687  84.9441757
  80.7119446  70.2765579  85.3404922  79.9073410  71.2986374  84.5665741
  64.0552521   3.3514266  35.5819016  64.2602463   3.1922770  34.6605568
  63.2723656   3.9017925  35.5614815  34.3032532  58.0312424  78.0312271
  33.7456207  57.2676048  78.1800079  33.7030144  58.7761459  78.0638962
  83.5077896  10.8955784   3.8309772  84.4293976  10.9777031   4.0761695
  83.0394058  11.4192572   4.4810638  22.7946682  19.9233952  69.3570251
  22.9305859  19.1795216  68.7701569  23.4177494  19.7829800  70.0699615
  46.8397980  52.6294670  24.7385502  46.3245926  51.9322243  24.3327789
  47.1148567  52.2653542  25.5799751  73.4269028  59.3616180   3.3183813
  73.8851242  59.4055367   4.1576285  72.8267822  60.1071701   3.3338518
  74.9357986  28.1649265  17.0608616  74.3946457  27.8499832  16.3368492
  74.3277206  28.2494354  17.7952518  20.0215054  55.7829704  44.7421455
  19.2030544  55.3819618  45.0346603  20.0227089  56.6492424  45.1493301
  34.7968597  30.5849762  21.0686455  35.6689529  30.4853802  21.4504356
  34.7500877  29.9041920  20.3973961  31.9344845  45.7215500  24.4343796
  32.0578537  45.3962097  25.3260994  31.0930004  46.1770554  24.4598904
  48.8323593  69.4810791  13.3861341  49.0471878  68.8094482  14.0334253
  49.6143150  69.5439529  12.8376617  11.5617695  70.7176743  52.7630959
  11.0072851  70.9744949  53.4998589  11.5379429  69.7607803  52.7675362
  39.9818687  44.4917526  10.8066339  39.3928413  44.9940491  10.2436247
  40.6609688  45.1166077  11.0608273  45.0497551  16.7408829  16.4443398
  44.9059906  16.3312149  17.2974148  45.5095291  16.0748444  15.9332294
  75.3301849  37.6522102  34.6250000  75.6556091  38.0259399  33.8060646
  76.1144409  37.3311424  35.0700684  62.5686493  20.3478069  11.8969965
  63.1053696  19.8623447  11.2705050  61.6790924  20.0264435  11.7498741
   8.2251854  42.5070724   7.6385193   9.0359926  42.8686752   7.9963841
   8.5139408  41.8996162   6.9574537  36.5565453  60.6039200  30.0935154
  35.6620216  60.8050346  29.8185406  36.4583092  60.2157516  30.9629440
  62.8514061  67.2314224  40.3962555  63.3046417  67.8452682  39.8183289
  61.9257126  67.4584885  40.3081589  65.0420761  24.9945488   2.3419771
  65.1375732  24.0522194   2.4802866  64.7803421  25.0767174   1.4249300
  57.2096367  57.0446396  67.8399429  57.9688187  56.6482925  67.4124146
  57.4576759  57.1029320  68.7626114  60.5041733  20.4582233  83.0008774
  60.2003250  21.3658791  82.9927292  61.3289337  20.4773788  82.5154495
  63.7688484  31.4752216   3.0367391  64.1673126  30.6067829   3.0939434
  63.3832321  31.6192055   3.9009159  86.9193954  41.6319923  77.1530533
  86.0684204  41.4188652  76.7701035  87.2107162  40.8154564  77.5588074
  19.1792488  14.1297016   6.6118155  18.3342209  13.8503008   6.9640884
  18.9578934  14.7831154   5.9482765  31.7357044  36.7275581  28.0372925
  32.4360161  37.1760254  27.5632973  31.2069302  37.4340248  28.4081421
  43.4692955  44.9231796  80.5517502  43.9964638  45.7220955  80.5596771
  44.0441971  44.2531929  80.9216614  14.6362457  55.5680275  37.7203522
  15.1430836  55.6526909  36.9127769  13.9551840  56.2365990  37.6468964
  30.5951614   6.8925633  43.3904076  31.0766754   7.6283040  43.7686424
  30.6757889   7.0145011  42.4444351  85.1203308  29.6615524  86.1836853
  84.5080566  30.0025997  85.5317383  84.6861572  28.8850307  86.5368805
   1.3779523   5.2210474  62.1231842   0.7989136   5.2017035  61.3612289
   1.6798626   6.1280961  62.1716080  31.2902050  15.6790218   1.4143621
  31.1249981  15.4219646   0.5072459  32.1002960  16.1874218   1.3754905
  11.1866550  40.0894089  10.2915020  11.4822836  39.3633537  10.8407526
  10.5590229  40.5627556  10.8376293  85.2411194  19.4589634  16.3195076
  85.8785248  20.1677914  16.2328873  85.6747513  18.6983185  15.9327078
  35.2042503  49.3373146  82.6498718  36.1185074  49.5954437  82.7670593
  34.7365341  49.7859268  83.3543015  45.7218857  49.2177963  50.5939713
  44.7882690  49.1955261  50.3839798  45.8072205  49.9270134  51.2311249
  33.0705185   8.6541357   4.1242661  33.9950485   8.5193157   3.9161708
  33.0257111   8.5764256   5.0772538  67.9785995  69.4422455  71.1381454
  67.2579041  70.0600357  71.2613220  67.6072922  68.7460327  70.5962448
  41.0549774  68.3110809  38.9722824  41.4021988  68.5068665  38.1020279
  41.3017921  67.3996506  39.1291466  37.1314125  51.1487885  59.5451393
  37.7684517  51.3012390  60.2431145  36.9590454  50.2078629  59.5795135
  55.4621811  60.8544159   1.8694336  55.1729164  60.8622246   0.9570214
  56.0469322  61.6087799   1.9417714  46.3487625   6.5195847  34.4815750
  45.4033470   6.5083942  34.3322563  46.5607338   5.6232224  34.7420273
  54.1870766   5.6918812  83.6835709  55.0265503   5.9345875  84.0742264
  54.2714958   4.7570195  83.4961166  59.0054054  58.3698120  44.0410652
  59.0494423  59.1243744  43.4537582  59.7685242  58.4650383  44.6109886
  24.6405678  35.5662918  19.4860611  24.3441238  36.2591400  18.8958797
  25.4567261  35.2527237  19.0964565  43.0579453  19.4794655  64.4889145
  42.5974731  19.5465927  65.3253937  42.9321289  18.5698967  64.2185745
  60.3148575  20.3263359  -0.2381362  60.1662178  20.5981750   0.6675354
  60.8470001  19.5339546  -0.1661038  51.1147652  45.3083611  59.3334694
  51.0328903  46.1314774  58.8517990  51.9694824  45.3648453  59.7606735
  33.7053146  58.6121407  87.6323242  32.8429413  58.3067513  87.3507614
  33.5227394  59.3828049  88.1698914  74.2358475  41.1789780   7.2009940
  73.5167007  41.4184227   6.6164236  74.9511795  40.9354744   6.6134243
  25.8081703  61.0585136  21.5058384  25.2021294  61.1714897  20.7735920
  25.5900078  61.7689438  22.1091003  77.4247208  60.9970741  56.1655769
  77.1467361  61.0587997  55.2517128  77.3396225  60.0679932  56.3795776
  77.5820847  41.1181183  22.1929379  78.2961884  41.6385117  22.5610104
  78.0084991  40.5395699  21.5607357  28.0031586  27.7738705   0.9203255
  27.4018631  28.1467037   0.2756017  28.5795860  28.5000591   1.1582648
  65.8790894   1.0706890  77.1710358  65.6077576   0.5219390  76.4351730
  66.4725266   0.5160253  77.6774063  13.1070595  66.3163452   5.7191138
  13.4814253  65.5503769   6.1542883  13.8637781  66.7869186   5.3695908
   6.6582303  40.9877968   2.6673508   7.2686124  41.7104073   2.5207226
   7.1402125  40.2076950   2.3928182  62.2466621  12.0373735  84.6741791
  61.3951073  11.9577818  85.1040039  62.1974144  12.8654366  84.1965637
  66.6213913  15.8974981  76.2638474  65.7513657  16.0970612  76.6094818
  66.5452423  16.0484524  75.3217010  49.9875641  44.0729523  89.3394394
  49.3453178  43.7579308  88.7034302  50.8100357  43.6622620  89.0727921
  33.9856911   2.6545479  64.7508621  33.3024178   3.0460131  65.2950363
  33.6894836   1.7562871  64.6038208  82.8429718  38.6675644  40.6612816
  82.4103165  39.3606453  40.1626015  83.5321198  39.1181793  41.1493912
  78.2504654  19.8239403  86.4778061  78.7730560  19.0450420  86.2868805
  77.8237228  20.0354881  85.6475296  47.7082748  24.7340946  73.8923187
  47.4454155  24.4519291  73.0162354  47.8044815  23.9204235  74.3872070
  41.8199539  45.5902748  35.5248299  41.2984657  45.2486687  34.7984772
  42.3562775  46.2787361  35.1316261  55.8836784  57.8072701  48.3232956
  55.4469490  57.0980225  48.7949638  56.7886734  57.5102234  48.2285194
  82.2160950   3.7507355  72.9838333  82.8821793   3.9473426  73.6425552
  82.6409225   3.9447577  72.1483078   1.9000446  15.0995312  25.4143620
   2.4515464  15.8818350  25.4231663   2.4746733  14.4049997  25.0923996
  25.6802444  69.9421844  44.5419922  25.3724823  70.3539276  43.7345390
  26.2643795  70.5911636  44.9342155  21.3229427  69.2335968   5.3840146
  22.2140503  69.5831146   5.3839478  21.4271469  68.3120270   5.6208119
  73.6698761  27.3011055  88.3209610  72.7131958  27.3026257  88.3523941
  73.9192123  26.4404602  88.6576385  19.8484173   8.4567604  79.3202744
  19.6548977   9.1533642  79.9475861  18.9945412   8.2110567  78.9642410
  73.3445892  47.6370811  53.0946999  73.7365952  48.4304771  53.4595108
  72.4204102  47.8579102  52.9790688  59.7795372  54.6960564  61.6232529
  59.0256462  55.1129189  61.2059937  60.4198112  54.5985260  60.9184341
   8.0522146  48.2964668  50.0244331   8.5756903  47.5137596  49.8524742
   8.6665821  49.0230942  49.9205093  11.4339905  59.4782257  18.4780045
  10.6440954  59.2535896  18.9697723  11.5573969  58.7450600  17.8751202
  58.6220284  63.6296921  70.0152130  58.0071144  64.3417740  69.8390121
  59.4854507  64.0385437  69.9554214  69.5792084  36.0387878  48.3468742
  70.0421066  35.2385292  48.5949669  69.8583145  36.2077370  47.4469948
  79.0373840  23.4228287  35.8679848  78.8362350  23.9032307  36.6710930
  78.2988586  23.6068115  35.2874947  11.2109499  39.0009270   6.2130618
  10.7584496  38.1581688   6.1778855  11.9465284  38.9032478   5.6084003
   4.5044403   8.7464800  83.3148117   5.0861111   8.0480261  83.6149063
   4.8429108   8.9859171  82.4520645  53.9219284  55.9716606  57.2156448
  54.5001602  56.1917496  56.4852753  53.5348053  55.1314468  56.9698677
  20.4534016   1.9346473  23.6525898  20.5624523   0.9851612  23.5995235
  20.4552689   2.1238790  24.5908966  28.7265491  23.4090729  14.4915466
  28.5867672  23.0569687  15.3705883  28.6423550  24.3567200  14.5969353
  31.6231422  55.8358459  58.3694382  31.5892277  55.3731499  57.5321846
  31.4714870  55.1554604  59.0254135  64.8698196  50.9468994   0.9968505
  64.2852249  51.6858978   1.1652673  64.3121490  50.1744423   1.0893140
  11.9285688  11.7330589  86.0431213  11.0485229  11.8147297  85.6755829
  12.4607992  12.3385582  85.5270462  73.1966400  54.7915688  78.6683426
  72.6229401  54.3106308  78.0718536  74.0777664  54.6426277  78.3253250
  75.0141449  57.4548302   8.1713142  74.2809906  56.8893623   8.4141397
  75.7605362  57.0998764   8.6541462  76.7380524  23.9809551  63.6651649
  76.2000122  24.5596313  64.2054291  76.1132965  23.5448761  63.0857277
   9.4210720   8.7872858  74.8000107   9.4408674   7.9928594  75.3336105
   9.7853413   8.5184736  73.9566345  55.2748947  28.7538185  13.8420210
  55.1880646  28.0457478  14.4802437  55.1161690  28.3346996  12.9962215
  86.4269485   1.2734463  63.3005791  86.4229660   1.6645808  62.4269524
  87.3533325   1.2229192  63.5361557  38.7889061  56.8268967  48.9177284
  38.3939400  56.4155960  48.1489220  39.6273384  57.1657104  48.6039352
   6.3392987   4.2700977  88.9719925   6.7258453   3.8624718  89.7470169
   5.6910701   3.6358058  88.6658783  13.7293930  45.7377129  22.8749237
  14.5284033  46.2206497  22.6637726  13.1158295  46.4088287  23.1738815
  45.4516945  68.9821930  74.0480957  45.6569519  69.3951645  74.8868790
  44.8976097  69.6190338  73.5968170  20.5106201  52.4183807  10.3816166
  21.3024254  52.6880417  10.8469744  20.7455864  52.4764442   9.4555216
  33.2796593  62.9845505   1.0891076  32.8200493  62.8507156   1.9180110
  32.8605728  63.7543793   0.7044463  11.5886202  52.7395592  44.5540314
  11.0242805  53.5113869  44.5991440  12.4303799  53.0759621  44.2466164
  81.1452713   8.0160408   9.7723885  81.8670502   8.6012688  10.0021095
  81.2170792   7.9079971   8.8240204   7.2364860  53.0959587  30.4615993
   7.3041739  53.0512695  29.5078430   6.5028753  52.5200310  30.6768990
  20.3679028  21.3547554  20.7620335  21.1526222  21.8685741  20.5711498
  19.7656307  21.5630398  20.0478077  37.8435249  46.9069595  82.0501633
  38.2017441  46.0976372  82.4147263  37.7954559  47.5049438  82.7960434
  52.8864937  48.5147362  42.0666084  52.0818748  48.4431343  42.5801201
  53.0553169  49.4555664  42.0158653  54.8418121  29.8519726  23.7587318
  55.7051620  30.1946926  23.5276375  54.3212509  29.9574203  22.9624100
  77.9573898   8.1393147  73.3116226  78.2081299   7.9480519  72.4078598
  77.5549469   9.0068054  73.2700500   3.7444098  37.1782074  38.5863991
   4.6519904  37.3927650  38.3707733   3.2685308  37.9996681  38.4640198
  41.9608345  46.2695427  39.0706863  42.2322502  45.4838524  38.5960732
  41.5165787  45.9367943  39.8505211  65.1795425  44.7793465  72.4893570
  64.3422928  44.6112099  72.9217682  65.2117157  45.7309875  72.3914948
  28.3933392  46.4062881  54.2234306  27.9526958  46.6795273  55.0280495
  28.9246597  47.1620216  53.9728355  60.1095581  11.0456085   4.6371880
  59.8653488  10.2404642   4.1807499  59.5772057  11.0408554   5.4326820
  45.8353386  38.9814873  60.7370415  44.8946686  39.0725632  60.5851326
  46.1584740  39.8812332  60.7847061  54.4052124  30.0726757  66.7280884
  54.7174683  30.7584553  66.1378021  54.8929176  30.2146339  67.5393982
  60.5547371   6.3305106  65.4781418  59.8718414   6.8649464  65.8834305
  60.0884285   5.5717850  65.1272507  81.0143661   5.6004963  44.0067902
  80.2669907   5.0095615  43.9148178  81.7286606   5.1561546  43.5500870
  48.4639053  60.7304878  68.7445908  49.3142471  61.0780106  68.4755554
  47.9546471  60.6902122  67.9351120  40.2737579  37.7405777  45.7050743
  39.4123154  37.8313980  45.2977638  40.7401428  37.1214180  45.1435089
  40.4771690  46.6308899  44.0723495  40.2356606  46.8904686  43.1832352
  41.4225121  46.7747917  44.1154327  73.1540985  36.9499435  10.3244867
  72.2303238  37.1787643  10.4270420  73.3431854  36.3779907  11.0683603
   8.2851200  34.2790031  21.0971107   8.6351423  33.7351456  20.3914680
   7.7903547  33.6703339  21.6457081  27.0832806  67.2180405   8.4082432
  27.9261761  66.9726562   8.0267353  26.6426849  67.7129059   7.7174397
  81.7822723  43.1486015  28.3166618  81.5898132  43.7916527  28.9990654
  82.4320679  43.5774689  27.7598228  56.5741692  30.7946720  34.2196121
  56.2238922  30.4623909  35.0461311  57.2259407  30.1446533  33.9571266
  47.1098061  44.5883942  71.4944229  47.7881508  45.2239990  71.2661972
  47.5022697  44.0577774  72.1877136  23.5131207  12.3137054   1.7522560
  23.3215370  11.9636097   0.8822218  23.5768929  11.5404768   2.3128641
  24.6919231  33.1045990  73.0134583  23.7696724  32.9428596  72.8146515
  25.1147022  33.1643829  72.1567688  42.2911949   3.5056627  86.0754776
  41.7685127   3.9785492  86.7231064  41.8635368   2.6527193  85.9991379
  70.0643158  36.4925690  33.7651634  70.9902725  36.2895088  33.6324921
  69.7572021  36.7824097  32.9061508  13.0607824  48.6519089  13.2590027
  12.1907148  48.2792015  13.4014931  13.1272469  49.3577461  13.9021254
  27.6084881  52.3586845  47.1985168  27.1271172  53.1263580  46.8899918
  27.7279663  52.5116653  48.1358299  36.1229439  17.9534206  69.6355438
  35.9934921  17.6787567  68.7277832  35.3377800  17.6506290  70.0916824
  38.4771423  52.0329056  86.5688019  38.7485046  51.9333496  85.6562881
  38.9308281  52.8204727  86.8690338  60.0172844  20.7432499  18.0828800
  59.5178070  19.9407291  18.2335758  59.3523788  21.4260578  17.9939594
  58.2160568  49.7995567  14.4996262  58.1106758  49.4669151  13.6082935
  57.3213120  49.9200134  14.8176708  49.0750732  35.5880623  30.3244801
  49.2850800  35.2325134  31.1880283  49.7188568  36.2832832  30.1886730
  64.2820206   1.9567819  56.6644363  64.2355270   1.4720699  55.8403473
  65.0336609   2.5397050  56.5573692  82.8351212  40.6892738  35.5775795
  83.0653687  40.0303650  36.2326050  83.6756210  41.0489006  35.2939034
  75.3703079  31.5722866  35.0886192  75.2020798  31.5798035  36.0308914
  74.5395508  31.2995129  34.6991692  86.6940918  11.6072273  65.8418427
  86.1056519  11.4552469  65.1023331  87.1758347  12.3999176  65.6056137
  40.7994957  28.9620533  70.7958527  40.6739922  28.3539200  70.0673904
  40.6099319  29.8234959  70.4240875  27.5574799  16.4165611  69.8785324
  27.7320957  15.5063028  69.6394272  28.4110165  16.7642593  70.1370163
   1.7471294  67.9160767  -0.0369688   1.3401984  67.6205368   0.7774602
   2.6606104  67.6400452   0.0377869  70.3460464  22.8576851  65.7864456
  69.5906296  22.2705078  65.8147354  70.8420563  22.6481419  66.5778351
  78.2937241  49.4716873   9.2260857  78.2293625  50.0164375  10.0105190
  79.2332230  49.4105988   9.0533285  19.0829411  14.3075428  59.8364983
  18.2946053  14.6434660  59.4099846  18.7570210  13.8238840  60.5955009
   8.9532766  28.9426441  16.3752270   8.5112953  29.6664715  15.9314270
   9.1051712  28.2960529  15.6859646  69.8920212  49.7428818  83.3871765
  69.2394638  49.2461357  83.8807831  70.1123962  49.1785316  82.6461105
  20.5681515  24.2319603  11.3971109  20.0700455  24.9072762  10.9365988
  21.0368500  23.7660065  10.7046947  48.3423538  63.2931175  88.2880707
  47.7752419  62.8472290  87.6589508  48.4646721  62.6571770  88.9929504
  81.1697998  66.8898087  58.7050972  80.4376602  67.4086685  59.0382538
  81.4379501  66.3492355  59.4481354  85.0040970  59.7361107   9.6031246
  85.6154099  59.0005531   9.6415100  85.2488174  60.2898712  10.3445358
  14.3077431  68.3476562  75.8121567  13.8391151  68.9587860  76.3806076
  15.1392450  68.1931458  76.2604446  35.0864029  31.9403229  28.0191784
  34.9058685  32.6919594  27.4546604  35.2609100  31.2212086  27.4120102
  60.0385857  69.1935654  84.9571838  59.9211464  68.5752563  84.2359772
  59.3228836  68.9957275  85.5612259  52.7318230  44.9781303  24.4822121
  51.9514732  45.3347855  24.9065781  52.4542542  44.7963219  23.5843620
  51.6113930   1.0504473  50.1568413  51.8425674   1.4217709  51.0082550
  50.7482452   0.6595151  50.2924271  64.1842346  38.4708214   6.5334983
  64.3720398  39.2570343   6.0208268  65.0443497  38.1523514   6.8073792
  82.3234711   3.3048525  34.2375374  81.6941986   3.2844260  33.5165482
  83.0462418   2.7521272  33.9403458  19.4326439   5.4591284  63.0848045
  19.3913593   5.9576201  63.9009132  20.3688488   5.3594537  62.9121246
  77.7746201  12.4031086   6.5266395  78.0938873  13.0353146   5.8827343
  77.0569000  12.8549423   6.9704432  78.4486542  27.5247707  11.6236038
  78.9839172  28.1544991  11.1407270  77.6643219  28.0155315  11.8689766
  73.3781967  21.1343498  59.4024925  72.9661484  21.7311249  58.7777443
  72.8073196  20.3660793  59.4121017  18.7252121  33.1700935  13.6945171
  19.3878536  33.8531456  13.5916662  18.1152325  33.3173637  12.9716969
  75.3773804  31.6403236  29.7903538  74.6232605  31.3293056  30.2911568
  75.7453308  32.3446121  30.3240337   6.1867800  53.3774300   3.7400723
   6.5813498  53.3552361   2.8682616   6.9322791  53.3769455   4.3404579
  81.7049103  15.6734304  78.0510864  81.5482483  15.7987528  77.1151428
  82.2375412  16.4262199  78.3076859  73.5598145  36.6206436  76.9047012
  72.9284592  36.8284531  77.5934982  74.2387238  36.1116791  77.3477097
  53.5295639  36.5892143  69.2515488  53.6046906  37.4951897  69.5512161
  54.3986320  36.2156792  69.3979263  41.7296600   1.7126194  27.9668121
  42.4780617   2.3042789  27.8888950  41.3635254   1.9020278  28.8306980
  71.3667145  15.1327810  35.5369339  70.4866486  15.5085564  35.5144501
  71.3350449  14.4109478  34.9090958   0.7137933  31.4440346  40.7227058
   0.0962369  32.1753464  40.7287025   1.4159759  31.7186623  41.3124084
  40.5131264  12.3175735  16.7049789  40.9350967  11.7954931  16.0226250
  40.8293037  11.9396791  17.5256233  34.7810593  45.6791191  30.7935123
  35.2775993  45.6729698  29.9751968  35.2184296  46.3368988  31.3341236
  29.6593819  42.2399559  69.1219101  29.0486851  41.5058784  69.1883240
  29.1084023  43.0182037  69.2054901  57.3540192  35.2498741  47.1832619
  56.9355583  35.4191513  46.3391800  58.2910500  35.2388268  46.9881134
  47.2495499  71.4570541  85.3202591  48.1087570  71.6863022  84.9660797
  46.6454124  71.5938187  84.5905075  34.2591515  54.4025421  32.2771301
  34.3204002  53.9458694  31.4381237  33.6839447  55.1475334  32.1028900
   4.9935865  36.0978661  14.2106771   5.1751223  36.8392372  14.7882957
   4.3196502  35.5962524  14.6693993  39.9851265  61.4140816  38.7101936
  39.9334641  61.2771301  39.6561394  39.9259415  60.5345078  38.3372574
  15.3451967  69.7165222  63.3098793  16.0283470  70.2986908  63.6424789
  14.9673805  69.3181229  64.0939407  56.1374130  52.5969734  20.3169193
  56.3269081  52.4295616  21.2401180  56.6217041  51.9186668  19.8461781
  16.2836075  65.3941345  61.3459549  15.7009945  65.3031311  62.0999527
  15.7140779  65.6957703  60.6382256  79.0325470   3.6033409  48.5041504
  78.8843613   3.3251679  47.6003304  78.1543579   3.6919260  48.8745232
  76.1052551  14.1804094  74.7303925  76.7400284  13.4794722  74.8786621
  76.1930542  14.7488461  75.4955063  48.9079857  22.7132874  55.8835411
  48.3961487  22.2102947  56.5169868  48.9965363  23.5795441  56.2810211
  31.5619621  50.2575073  51.8703041  31.8474312  50.9533653  51.2782555
  31.6280308  50.6439095  52.7435493   4.3029904   5.1622920  59.9751091
   4.0288057   4.4824433  60.5906258   3.7357306   5.0391989  59.2139931
  11.1538153  56.7490692  58.9759712  10.7220612  57.5843277  59.1553230
  10.6640997  56.1102295  59.4939384   6.8019080  65.2378311  22.9640846
   6.9963722  65.7033386  23.7775459   7.2850995  64.4148254  23.0377064
  54.2849808  21.6918774  84.5702133  54.6178360  21.1993656  85.3204575
  53.8664322  22.4616165  84.9556351  52.9962845  71.1442566   3.7222416
  53.1732674  71.5022278   4.5921664  53.8427238  70.8120880   3.4231839
  53.2110138   5.0225415  78.6875229  53.8366699   4.7526097  78.0152740
  52.5220528   4.3588924  78.6538315  56.9668427  23.1739559  77.5000076
  56.9915085  22.8781586  78.4100266  56.9057846  24.1273441  77.5596313
  15.2213755  43.0405083  84.2202377  16.1388035  42.9665222  83.9573975
  15.2527208  43.4404221  85.0893250  40.4204216  27.5477505  -0.1350262
  41.1562958  28.1542797  -0.2177576  39.8074646  27.9932137   0.4498483
  25.0445557  32.5060196  82.0014420  25.2534294  33.2672615  81.4600449
  24.9510899  31.7864819  81.3771362  73.7452927  44.4250031  37.6578865
  74.1193008  43.5786476  37.4128685  73.7841034  44.4361725  38.6142349
  55.9972267  14.5807142  51.7460899  56.3844032  15.3370762  52.1868172
  55.0586395  14.7678251  51.7293320  30.4824200   0.0134263  38.3080673
  31.1050301   0.6670280  38.6264915  30.0050793  -0.2636371  39.0901260
  54.0429840  12.8900404  55.2778587  54.4009171  12.4777822  54.4916267
  53.1018219  12.9448862  55.1122284  52.5453072  65.5843582  83.9196930
  52.1881332  65.7611694  84.7899780  53.4943199  65.6272278  84.0370331
  84.5743790  13.4108620  59.0196114  84.3563156  13.6429672  58.1169434
  83.7757492  13.0107718  59.3636436  80.4062042  68.1736603  78.9223557
  81.3220901  68.1261673  79.1964493  80.4135742  67.8818893  78.0107422
  78.0979156   1.9703068  88.9431458  78.1347351   2.9243050  88.8741302
  77.8575974   1.6757122  88.0646820  47.4578590  29.0934792  40.7347946
  46.7485275  29.1385670  40.0936623  48.0228729  29.8355160  40.5194473
   3.7376332  45.5431786  43.4614944   4.4076385  46.1908607  43.2427940
   3.2596095  45.4074554  42.6433868  12.5370426  65.7160492  61.2566338
  12.5029373  64.8242340  60.9106102  11.6710968  66.0786896  61.0699120
  24.2507401   7.3379831  29.9326210  23.9523277   6.8511410  30.7008438
  25.0232105   6.8597860  29.6312084  37.9570351  51.4828453  65.8553619
  37.0879784  51.8468742  66.0240479  38.0864639  50.8392448  66.5519638
  59.4536285  48.2021179  37.1212616  59.9813232  48.6877441  36.4872780
  58.9625053  47.5733223  36.5924454  25.7693558  52.0511856  49.8434639
  25.1286354  51.4747696  50.2599411  25.2705956  52.5197563  49.1742020
  21.4940319  68.1413956  54.6462250  22.2413139  67.8946991  55.1911507
  20.7925587  68.3256760  55.2708969  44.0900917  55.1252747  65.4542389
  43.5208206  54.6429825  64.8546066  44.8037758  55.4447060  64.9021072
  46.6846085  -0.1498553  24.7668304  47.1247025  -0.2635483  23.9244385
  46.7008018   0.7948817  24.9199371  51.5552254  39.7786331  44.7848206
  51.3356743  40.5187683  44.2189331  51.0133667  39.0596275  44.4597778
   1.7533157  46.5550804  54.9920158   1.7915417  46.0460396  54.1822929
   1.4710780  45.9268532  55.6567688  21.0454521  61.8158531   4.1793022
  20.7011623  61.1593018   3.5737979  21.7046432  61.3472252   4.6912479
  50.1738243  35.3022995   2.7620289  49.5791016  35.9989243   3.0399635
  50.8629837  35.7553749   2.2762136   2.5209014  47.5382729  36.9777107
   3.0961156  48.2193527  36.6291580   2.1296909  47.9313316  37.7578964
  27.2836990  68.7230377  79.4544830  27.0808620  69.0169449  80.3425751
  26.4699631  68.3282089  79.1411438  60.0604477  50.9526215  49.3707123
  59.8271942  50.3737602  50.0964851  61.0158997  51.0017700  49.4010963
  80.0954208   4.9730301  61.1334801  80.3592377   4.1416268  61.5276871
  79.3446350   4.7496862  60.5833206  64.1829453   5.6661968  46.9331818
  64.9215164   5.5705333  47.5345078  64.4591446   5.2075343  46.1397247
  11.5035734  65.0067749  71.8431396  10.5545635  64.9504852  71.7315903
  11.8159370  65.4142914  71.0353088  78.4657898  17.7833328  72.4751740
  78.0700302  16.9979477  72.0973206  77.9272079  17.9775791  73.2422638
  33.0252113  55.4014320  77.5791168  32.5390701  55.9513245  78.1935349
  32.3863678  55.1749153  76.9032440  82.1268768  17.5123482  52.7149086
  82.7908630  17.1016922  52.1610832  82.4935226  18.3692055  52.9330826
   8.7955885  64.7951965  44.7018394   9.5728140  65.3188171  44.5069618
   9.0980930  63.8886032  44.6488113  39.0540771  62.4250984  65.1401520
  38.7736931  62.8825493  64.3474655  38.7549629  61.5244331  65.0154114
  39.1961250  49.4816856  81.0917130  39.9001083  49.0480499  80.6094360
  38.4585571  49.4914398  80.4816895  75.0562973  57.1660728  79.3044510
  75.5191193  56.4219933  79.6896515  74.2856903  56.7795448  78.8885345
   7.8237629  28.0812683  78.9932327   7.9312735  27.4826031  79.7323303
   7.4247055  27.5458698  78.3074188   6.9577770  70.5560532  64.5812683
   6.8855176  71.4729538  64.8464127   7.8999228  70.3914185  64.5426865
  70.9508667   3.6099107  60.9937477  70.3169937   3.6668684  61.7087288
  70.7568588   4.3667750  60.4407997  84.2654572  65.6259155   8.8469658
  84.4148254  65.9894257   7.9741664  84.4313736  66.3567581   9.4424238
  59.1343422  48.9354362  46.1406059  59.6032410  49.5982437  46.6476059
  58.6103172  49.4376144  45.5165482  80.1875610  48.0271797  82.7695999
  80.9839630  48.5200195  82.5718994  80.3331451  47.1679306  82.3737183
  65.2974243  24.2662792  55.1718254  65.4824142  24.5543575  56.0657043
  64.6183243  23.5990200  55.2709274  69.1832504  23.7787399  14.7295418
  69.9932327  23.2836742  14.8522949  69.3057938  24.2360554  13.8976307
  12.2709265  54.6227913  39.2755127  13.1722708  54.3910484  39.4993515
  12.1658449  54.3292389  38.3705177  18.6700573  36.3475761  69.0997391
  18.5285664  35.7223434  68.3889008  18.4692688  35.8549690  69.8955154
  26.2628746  55.5572662  33.2858696  26.5256805  55.4096298  34.1943703
  26.3710842  54.7050247  32.8637238  64.2248383  64.4775009  67.1447220
  63.8915825  63.7719345  66.5903397  63.6086502  64.5188599  67.8760452
  74.8690872  59.1538162   5.9055157  75.1744156  58.8818207   6.7709770
  73.9919052  59.5043068   6.0602317  55.9400902  63.5609245  12.9723005
  55.5356140  64.2837830  12.4926071  56.8181610  63.4870071  12.5984526
  78.7813873  35.5257607  54.1636810  79.2624054  35.4087410  54.9829216
  78.8526459  34.6799736  53.7211876   6.2527723  36.3779297  58.5962791
   7.2004008  36.2492294  58.6371155   6.0780530  36.5812569  57.6773872
  85.8776474  13.9555759  78.6000671  86.7256546  14.3995333  78.6032639
  85.8123779  13.5575771  79.4681473  14.8493719  59.3438950   0.6472356
  15.7643843  59.5572319   0.8301867  14.3534040  60.0665398   1.0319839
  75.9927673  37.4396210  30.9866619  76.2521057  37.9573479  30.2244701
  76.4208832  37.8710175  31.7261505   1.3681889  57.4350357  54.9022751
   0.7187090  57.5914650  55.5877953   1.5855094  56.5065651  54.9856071
  25.6860008  43.2527008  35.3371162  26.4749832  42.9687996  35.7987862
  26.0132694  43.7340965  34.5772591  78.8732452  22.7895565  58.2829857
  79.5939713  22.3463573  58.7305946  78.3863525  22.0843582  57.8565292
  77.5971527  54.3804092  57.1630592  76.6490173  54.2603226  57.2163620
  77.9243622  54.0829048  58.0119781  28.8720360  65.4750443  73.7762680
  28.4388618  66.2387848  74.1574326  29.0844326  64.9206161  74.5270844
  75.7225037  71.4950180   7.0390067  76.1353683  70.7108841   7.4008203
  75.6981812  72.1120529   7.7703781  75.3844833  66.5953522  17.0816479
  75.7181778  66.4730759  16.1928692  76.1351700  66.9241562  17.5762119
  67.7100449  60.0788841  68.9123459  68.3430557  60.5018120  69.4925690
  67.1928940  59.5178909  69.4903412  81.7961197  50.6508942  33.4919128
  80.8618240  50.8022614  33.6347809  81.9468384  49.7623024  33.8142815
  83.8761368  63.1557579  34.8687401  84.6920090  63.3390121  34.4029045
  83.2275009  63.7188873  34.4463844  80.8518906  23.9189377  78.1050873
  80.3466034  24.4627743  77.5008087  80.3724594  23.0912170  78.1404572
  26.3843784  51.1528473  84.8700333  26.1895275  51.6876183  84.1004333
  27.2954788  51.3580513  85.0798416  38.2761116  16.2754288  16.5840511
  37.6868553  15.6663227  17.0290241  37.7740707  16.5875034  15.8311901
  24.2850494  58.6673851  30.5432568  24.7308006  58.3746262  31.3381348
  24.3123837  59.6229782  30.5914574  47.6920433  27.8901100  19.8666725
  48.4555702  27.5456066  20.3298988  48.0400200  28.5984020  19.3249474
  42.2624588  57.2913857   4.4231262  42.8236084  57.8547745   4.9559817
  41.4763641  57.8148308   4.2672687   1.6792891  45.0452614   8.0089169
   0.8288229  45.2108688   7.6020837   1.4671886  44.7294312   8.8872652
   6.6548991   1.3621877  62.3676186   7.4050455   0.7956372  62.1872482
   6.5143828   1.8408724  61.5507050  64.7130203  11.7405205  71.7900085
  65.5958176  11.4778824  71.5293808  64.3856583  11.0026331  72.3043900
  77.7020264   8.1217794  82.3501816  77.8848114   8.1287823  83.2897415
  77.7967682   9.0354328  82.0809326   3.8382456  50.3940277  38.8995094
   3.9079766  51.3161774  38.6525078   4.0591631  49.9147987  38.1009026
   3.6058624  16.4906845  63.4559669   3.4435079  16.1350384  62.5822449
   2.9755561  17.2056065  63.5444756  16.5467377  66.2688599  57.0018883
  17.3894310  66.4033356  57.4354935  15.8963432  66.4806442  57.6714897
  47.9393234  66.4478378  14.1507931  48.5580177  65.7261353  14.2630119
  47.4455185  66.4696350  14.9704971  71.7876587  44.7969093  10.3439102
  71.7313004  44.3260384   9.5124464  72.6915436  44.6680336  10.6313581
  14.0248032  18.6199303   3.0314746  13.7129793  18.1892776   2.2355244
  14.9697399  18.4672012   3.0319519   2.7913392  59.6923943  36.3048363
   1.9547565  60.1082993  36.0965500   2.7480743  59.5256844  37.2464142
  81.0683594  54.8614311  81.8817291  80.8284378  54.2074890  81.2252045
  81.7881851  54.4595833  82.3681488  35.4208565  52.4804535  40.4619446
  35.8044586  52.5600967  39.5885963  34.5693588  52.0693741  40.3129578
  52.1920395  68.9014969  16.0194836  52.7382164  68.9257355  15.2337770
  52.8156586  68.8369370  16.7427845  69.1197968  16.9952526  83.0271759
  69.2916107  16.3889771  83.7476883  69.9135818  17.5267735  82.9669495
  29.6848660  33.6408730   5.5780582  29.7301750  33.7005730   6.5323195
  28.8943272  34.1276131   5.3448920  33.7339592  65.1300507  66.9358292
  34.6532974  64.9908524  66.7085190  33.2729111  64.3964767  66.5289764
  86.3119736  54.4085388  48.2798309  85.6206665  53.9757767  48.7808685
  87.0814514  53.8529129  48.4040260  65.7571030  16.5920811   1.7858757
  66.1775436  16.0298367   2.4365234  66.3949127  16.6539288   1.0748174
  52.0681229  12.1268015   3.6661017  51.2133713  12.2523642   3.2539563
  52.6502419  11.8918009   2.9435062  65.2958679  69.2797394  32.5665283
  65.9071045  68.5440445  32.5293541  64.5857468  68.9729004  33.1302681
  86.9346848   9.9635792  37.6146698  86.3297501   9.3305788  37.2278976
  86.7180557   9.9631023  38.5470352  82.8866272   2.1269255  85.4356003
  83.0813751   1.2375809  85.1400070  81.9644928   2.0980086  85.6906662
  31.7969208  11.4420042  79.6010895  31.2341385  11.6446619  78.8538055
  32.5807228  11.0537605  79.2123108  83.0674133  30.4742241  84.6062088
  82.1231003  30.3278255  84.6616974  83.2980957  30.2142220  83.7143478
  81.7467804  25.8659801  38.6383324  82.6014862  26.2348824  38.8610802
  81.7043686  25.0458431  39.1300697  54.4151802  21.2112007  68.3644333
  53.8575439  20.6430397  67.8329620  55.2610855  20.7637768  68.3865662
  28.6084518  26.0504608  67.9277344  29.3916111  26.2675381  67.4219971
  28.1595249  25.3885956  67.4017792  -0.0165521  67.2324448  64.5412140
   0.6618266  66.7872314  65.0489731  -0.1592050  66.6655579  63.7832413
  49.4950943  10.6166630  67.5179291  49.0967445  11.3418903  67.0366898
  50.1375580  11.0341492  68.0916672  17.2425537  51.2439537  70.1542740
  17.1194077  50.4083176  69.7039642  17.2065754  51.0221977  71.0847397
  48.2417870  69.9057236   7.3624825  48.3335266  68.9976425   7.0740285
  48.1117592  70.4017944   6.5542498  40.6374397  58.2819405  10.2941761
  40.4794655  59.0080986  10.8974733  41.5168266  57.9746246  10.5143318
  44.4708023  53.3155327   8.4081011  43.6728935  53.8058739   8.2102680
  44.4021378  53.1126442   9.3410292  69.3199615  40.9190636  44.1179276
  69.9122925  40.2317963  43.8129120  69.8627396  41.4702377  44.6816978
  17.3728523  17.7110538  80.0270996  17.5433083  16.8143940  79.7386932
  16.4794884  17.6866360  80.3699341  52.4117393  19.5241280  13.8495951
  52.3462524  19.2843819  12.9252224  52.0072823  20.3901176  13.9016619
  39.8234634   1.5704179  30.5531921  39.7944908   0.6334529  30.7468128
  38.9108086   1.8541896  30.6057701  78.4377594  32.9777527   0.3441726
  77.9250412  32.4316826   0.9401293  79.0096054  32.3613815  -0.1133260
  86.5826035  36.9544678  51.3209496  86.2895584  36.8773232  52.2289162
  86.3316269  36.1238289  50.9168739  12.7501984  47.6458397  37.2109184
  12.6492109  47.0117760  36.5009918  13.1119652  48.4241905  36.7872124
  79.6792831  53.3042145  62.4810066  80.1118393  53.2978516  63.3348732
  79.6107407  54.2316132  62.2541428  75.5072708  52.3748550  30.2000675
  76.2216568  52.9117775  29.8571415  75.7910461  51.4733696  30.0483227
  41.6385612  43.2245293   3.5302401  41.5032730  43.9679985   4.1177621
  41.0608101  42.5416946   3.8710692  27.6529160  60.1935463   2.8393121
  27.5545311  59.2414703   2.8494844  28.5666180  60.3425293   3.0825925
  54.5683136  65.4297333   6.9428821  54.2848892  65.3457642   6.0324697
  55.4188232  64.9914246   6.9703526  37.9063034  27.0141315  12.8465881
  37.6714211  26.9380550  13.7713985  37.8501854  27.9515991  12.6615543
  63.2538834   2.3866489  79.3093567  62.5082016   1.9752710  78.8723602
  62.8609810   2.9332907  79.9898300  63.7559929  33.5906219  79.0947876
  64.0023041  34.4551201  78.7658310  64.5777664  33.1003685  79.1186371
  85.4553375  35.8551102   5.6466904  85.2402802  35.2190895   4.9644437
  86.2259750  36.3138466   5.3121591  54.1078415  25.6945572  34.7183456
  54.9946594  25.7790222  34.3681335  53.8291283  26.5951004  34.8844032
  78.3983078  16.9066353   4.6723485  77.5976868  17.3622379   4.9324708
  79.0113297  17.0716686   5.3887305   5.9947386  44.1119766  83.6483078
   6.5208530  44.8910561  83.8285217   5.0943651  44.4346046  83.6099548
  80.4459229   1.9186443  86.7696304  79.9620209   2.7423642  86.8292923
  80.0842209   1.4837667  85.9974365  47.2446480  43.8385277  38.6375809
  47.8140488  43.2058983  38.1996384  46.6311760  44.1189194  37.9584160
  21.6342201  38.7639732  83.7972565  22.4480019  38.5159149  83.3585510
  21.0006104  38.1029587  83.5182724  17.9488392   9.1206980  87.2307816
  17.5411873   8.3243132  87.5711136  18.8893299   8.9547043  87.2952423
  13.3630476  33.6126823  14.2429295  14.1731663  33.1880188  14.5250683
  13.6210575  34.5128059  14.0443392  68.5689087  69.7663727  35.2222862
  68.2385025  70.6369553  35.4439964  69.0974655  69.9038315  34.4361763
  55.9001999  23.8512554  87.8045578  55.4514809  24.6946239  87.7444611
  55.2083893  23.2022152  87.6765747  56.0469627  19.6583424  48.3816757
  56.2265816  20.5543957  48.6663780  55.1171875  19.6611366  48.1542053
  27.9565392  49.8115311  73.0484772  28.0587978  50.6053963  72.5235367
  27.0854454  49.8918724  73.4370270  79.4471130  27.1561108   5.7976027
  79.3018265  26.6213074   6.5780568  78.5682983  27.4022408   5.5089107
  39.2387276   9.9360542  82.7242126  39.7112694   9.1325121  82.9415970
  38.3821983   9.8296175  83.1380539  50.1051826  21.9090157  51.6913185
  50.5531502  21.3713188  52.3443375  49.5533943  22.4991341  52.2046661
  48.2372856  59.1350441  56.7259979  49.0840302  59.2513618  56.2950401
  47.6378555  58.9015503  56.0171967  75.8384628  45.2990341  72.4289017
  75.5843887  46.1930351  72.6579132  76.6054611  45.4047432  71.8660736
  70.0730743  28.0793514   2.2838907  69.5533371  27.4309177   2.7589002
  69.4887848  28.8315334   2.1887293   4.4917979  23.5116940  73.8139954
   4.8738766  22.6792965  73.5358505   5.1977453  24.1484261  73.7024460
  19.2321548  52.1079903  43.1398163  19.1219006  53.0470238  42.9904976
  18.4786263  51.7065582  42.7070656  62.7880478  26.7193336  26.7447224
  62.2907867  26.7009697  27.5624180  63.4874153  26.0789604  26.8752670
  13.5397062   2.7834148  63.4260788  14.3356714   2.8134820  62.8952637
  13.7922506   2.2939563  64.2089462  38.6752510  54.0857353  21.5451603
  38.4955521  54.5983582  20.7570229  39.2145195  53.3566246  21.2388649
  12.0259342  68.4233246   1.8710737  11.7831678  69.1883469   1.3494982
  11.7477226  68.6417694   2.7605193  29.5621262  49.2269897  80.6790619
  30.1038151  49.4971008  81.4205856  28.7636337  48.8822250  81.0787811
  48.2980003  20.7363644  13.2583933  47.8374557  21.4966717  13.6134443
  48.1138535  20.0327053  13.8806372  81.3941193  45.0675354   0.6693540
  81.4949646  45.8949013   1.1400272  82.2245560  44.6115189   0.8059397
  46.5556908  16.6031857  39.8835144  46.2635880  16.5265465  40.7918282
  47.2347565  17.2774105  39.9063797  72.1322327  47.9393845   6.8864121
  71.7432251  47.6047592   7.6944556  71.8501587  47.3222046   6.2113128
  77.9031372  48.0194016   2.7079906  78.7529526  48.1073227   2.2763481
  77.4491501  48.8390427   2.5122645  74.2544327   3.1531465  34.5381432
  74.2803879   2.2693424  34.1714706  74.9560623   3.1630528  35.1891823
  57.3174591  43.9883347  36.1611290  56.6836205  44.0538063  36.8754082
  58.1443405  43.7748718  36.5934906   9.2231970  22.3118305  82.2960052
   8.4894342  21.7297077  82.4933777   9.8432465  22.1663780  83.0105820
  41.5230103  68.6185913  61.2767601  41.3653564  67.8128204  61.7687988
  42.4290771  68.5430832  60.9774780  47.1111565  24.5707512  85.4514236
  47.7107048  24.3646183  84.7342834  46.9211884  23.7241402  85.8556442
  49.4046021  68.3580780  78.4434357  48.8839035  68.0301666  77.7102356
  49.7911911  67.5735626  78.8324356  20.7205772  23.6675262  14.1488390
  20.7201309  24.0605450  13.2760458  21.4722691  24.0637283  14.5895386
  43.1651115  40.4439087  13.6254663  43.8360634  40.7083244  14.2548609
  43.6428032  40.3152695  12.8060179  84.0785294  16.9697895  80.9124680
  84.7008133  17.3195324  80.2747498  83.2194595  17.2108536  80.5658875
  18.8981915  14.5923729  74.8475342  19.6178341  14.2843170  74.2966766
  19.0187511  15.5409670  74.8907394  82.2146683   6.8822780  21.0083904
  82.1997147   6.4817495  21.8776340  82.2803268   7.8219080  21.1787338
  73.6022797  17.2668724  10.9310799  73.4762878  18.2156715  10.9193268
  74.5217056  17.1444054  10.6946487  64.0929718  26.1849842  82.4425507
  64.5683441  25.4509945  82.0533066  64.4095459  26.9538422  81.9683533
  60.8461647   8.5935593  19.9338341  60.1430473   9.0025120  19.4292393
  61.6363564   8.7557402  19.4185410  56.4838371  14.1486092  28.7600403
  57.3535881  14.5050783  28.9408684  56.6501961  13.2620802  28.4396896
  23.1953449  48.8422928  20.7998066  23.8435841  48.7643089  21.4997616
  22.7848816  47.9786644  20.7561893  13.6931839  59.1795197  15.7306423
  13.7578087  59.9721794  15.1979637  14.1716614  59.3901253  16.5324764
  36.6269989   6.8827529  13.6051674  36.1936836   7.6189518  14.0370026
  37.0467262   6.4005146  14.3175621  31.3991966  33.3272591  14.3489561
  30.7039356  33.8462219  13.9445782  30.9664383  32.8650970  15.0668402
  55.6455574   1.7511181   1.4164790  56.1893539   1.0322075   1.7384813
  55.9115372   2.5062222   1.9411731  68.7395859  56.0904503  15.4792919
  68.1779175  56.8589668  15.5799885  68.2217865  55.4829102  14.9510784
  59.9685898   6.2349763  51.8688011  59.3178406   5.7640333  52.3893471
  60.8083000   5.8700075  52.1479340  56.4139099  66.9552689   9.4937830
  55.9448090  66.9732132   8.6596041  56.5311661  66.0242462   9.6826582
  85.4662933  27.8450928   0.4106960  85.7638397  28.6599255   0.8153536
  84.6644211  28.0867290  -0.0528139  65.1469040  43.4901428  11.7670507
  64.7743683  42.6458511  11.5128498  65.9985199  43.2719154  12.1456842
   2.4817474  10.6810846  59.6468468   1.6679106  10.4468994  59.2006874
   3.0555725   9.9273434  59.5096245   5.6493497  68.3496857  53.7549324
   5.0394130  67.6266098  53.9011383   5.6356411  68.8440247  54.5744896
  20.2264442  69.8799973  17.1621552  20.0649319  70.4255142  17.9319324
  20.0002041  70.4403000  16.4197903  22.4683971  15.0919838   0.6067313
  22.5155888  15.8401213   0.0115048  23.2556095  15.1651993   1.1463330
  43.0042458  59.6758575  47.3974876  42.5812607  59.7938385  48.2480125
  42.5842743  58.8997116  47.0267372  41.7683983  66.1082458  67.2663803
  41.5983849  66.4434433  68.1467056  42.2519302  65.2945862  67.4091492
  68.8449860   4.3031540   6.4209766  69.1168594   3.4356215   6.7204857
  67.9388199   4.1850929   6.1361036  49.8550262  26.0949020  63.8374519
  49.0921135  25.5468521  63.6535072  50.1963272  26.3279037  62.9740562
  17.2651558  38.7688255  17.6246452  17.9543991  38.5742073  18.2597027
  16.4520836  38.7003670  18.1251049  51.4996414  32.3716125  61.7578316
  51.9286385  33.0949211  61.3006439  51.3917122  31.6957150  61.0886917
  32.0332336  44.5029831  49.1508980  31.5319290  44.8796577  48.4276810
  31.3847256  44.0266418  49.6693268   0.8098149  27.3488312  86.4344864
   0.9505709  28.2729225  86.6405792   0.3719065  26.9948120  87.2085266
  30.3998718  69.6850967  59.4056129  30.4829922  68.7831802  59.0959892
  30.5156403  69.6244354  60.3538513  30.8883877   5.1106725  78.9796677
  31.1266518   6.0352554  78.9117737  31.2151413   4.8415461  79.8381729
   9.5772314  29.3132706  13.3942480  10.5305967  29.2475948  13.3393526
   9.2574301  28.7524624  12.6875277  37.3960876  49.3406105  62.0718269
  37.4069328  48.4900932  61.6328125  36.5208206  49.4014816  62.4544945
  18.8537712  58.8978081  51.1594124  19.4134750  58.1504478  50.9486542
  18.6208878  58.7707977  52.0791206  44.6924477   4.3963051   8.8525181
  44.2470055   3.6491306   8.4530888  44.7069740   4.1943545   9.7880592
  69.6697922  12.7408495  43.1654053  70.0053787  12.2674074  43.9266281
  69.5109100  12.0604792  42.5111237  74.0667114  29.5702362  42.3806992
  74.0817337  30.4992771  42.1507301  73.7911758  29.5547981  43.2972565
  20.3379688  59.4558754  16.2465019  19.5078487  59.7641678  16.6099415
  20.8393440  60.2547455  16.0832138  54.5978699  70.8248444  80.3462982
  54.0754700  70.4489059  79.6377792  55.4811592  70.8910904  79.9834671
  67.4250488   0.1921683  23.2593746  67.3175583   0.6837540  22.4451141
  68.3409500  -0.0858859  23.2521496  25.9574509  45.0166092  32.7464256
  25.8384628  44.7747879  31.8279495  25.0885506  45.2957191  33.0351143
  28.8393536  43.8749619  72.1720886  28.1796570  44.5579338  72.2928467
  29.6044827  44.3385353  71.8316269  74.2870483  49.1008835  16.6259995
  73.9307175  49.9806786  16.5026264  74.3153534  48.7281914  15.7447891
  26.8570919  62.6095772  66.3108444  27.4776001  62.1065636  66.8382721
  27.4003525  63.2409477  65.8391800  52.8882103   8.5683107  69.3131332
  53.2709236   8.1234426  70.0693436  52.2459831   9.1703081  69.6891403
  70.1676178  42.3591232  71.8894882  69.2498932  42.3083038  71.6222229
  70.6603241  42.2512894  71.0759506  28.4823666  37.0173645   8.8572283
  29.0130386  37.1550560   9.6418686  27.5851517  37.1923866   9.1411390
  83.9993591  69.8762512  36.6997070  83.0996780  70.1968689  36.6363754
  84.5388412  70.6654587  36.6513290  75.7200699  60.3266144  79.9597473
  75.9988632  59.5956688  80.5113068  76.0244675  61.1065178  80.4237747
  34.1192398  31.4268150  73.5327530  33.4530830  30.7456894  73.6251602
  33.6625366  32.2395287  73.7499008  14.1705990  71.2631836  17.0248604
  14.2856302  72.1790619  17.2781658  14.5379572  71.2107544  16.1425171
  66.4295654  68.2215424  15.0788794  65.9370422  67.8586349  15.8150520
  66.0281906  69.0758896  14.9200869  49.6385345  28.1654015  32.1892891
  48.8305206  28.5582199  32.5194969  49.9135933  28.7448254  31.4787655
  40.8947029  31.8233280  56.1374931  39.9739189  31.7894306  56.3967934
  41.2292709  32.6218224  56.5457802  44.1041336  12.5901575  70.7483902
  43.2434196  12.9706392  70.5733414  44.1702271  11.8561192  70.1376114
  56.3906021   1.5190570  81.5578537  55.8138390   0.8571379  81.9392166
  57.2636604   1.1288815  81.5998688  52.6854553  40.9058609  49.5137825
  53.2950516  40.1869049  49.3472748  52.2001648  41.0030212  48.6944618
  77.8761826  40.3361053  88.2193604  78.2282104  39.4584541  88.0709381
  78.4956055  40.7433777  88.8248978  74.2783432  29.3107147  21.9540291
  73.5968552  29.3997211  22.6202774  74.6878662  30.1749306  21.9133587
  61.8070564  45.2233925  43.9449883  61.4708252  45.8866730  44.5476837
  61.7117958  45.6173897  43.0778542  47.3114357   6.5754819  22.3583450
  46.8928833   7.4350023  22.4060040  47.9825325   6.6730056  21.6828117
  29.7846432  38.6863289  76.1001205  29.5024548  39.3947754  75.5215836
  29.0585270  38.5745659  76.7137146  42.9547501  60.5436134  61.1884270
  42.5646553  60.3487663  60.3363152  43.3375092  61.4146080  61.0830879
  65.7660141  32.0952225  47.0573807  64.9682312  32.3043060  46.5715218
  66.3066864  32.8812714  46.9797363  35.9546394  40.6269722  43.5023766
  36.6287308  40.7653389  44.1677208  35.8150406  39.6800270  43.4961662
  28.8043308  63.2769089   5.8616138  28.0533829  62.9218445   6.3372607
  29.0383492  64.0711060   6.3419380   3.2582755   5.5486050  53.8306732
   2.8343439   6.3231211  53.4610252   4.1812568   5.7919488  53.9022369
  48.8290634  43.6077805  59.5217171  48.4535294  44.0796432  60.2650566
  49.7055969  43.9788513  59.4205704   3.2403235  55.8604584  33.5500336
   2.4803736  56.2471886  33.1151276   2.9776928  54.9585915  33.7341309
   3.8739178  13.2451105  79.4788361   2.9978495  13.2180481  79.8635483
   4.1818862  14.1357021  79.6468582  18.2663822  46.4811935  34.1211815
  18.5999680  45.6607246  33.7581596  18.8772049  47.1479111  33.8071556
  47.9432526  50.0099335  39.5480423  47.7971649  49.3260994  38.8943939
  48.1240654  49.5325737  40.3577766  37.3626862  39.0900688  86.3531723
  37.4693794  39.5034218  85.4964371  36.8910904  38.2774963  86.1699905
  22.9350815  13.5611897  66.1265945  23.1747379  14.4847345  66.2031631
  23.7498703  13.0876217  66.2941818  80.9539337  21.5537720  21.9217300
  81.7033691  21.1478844  21.4860382  81.3301315  21.9968987  22.6822205
  84.6210938  26.2805042  56.2845955  84.3637009  25.3740540  56.1162987
  85.5780869  26.2608891  56.2888336  55.3997536  51.1899719  81.2044830
  55.6152039  51.4240837  82.1072617  55.9479637  51.7649918  80.6705856
  82.1036835  43.4070435  59.2261314  83.0127029  43.4158440  58.9264069
  81.5860977  43.3975525  58.4209976  73.9346542  41.6155548  18.9368954
  74.3603973  42.1841621  19.5785007  73.8515167  40.7722702  19.3820839
  80.6429291  52.5420914  65.0957413  80.2021713  52.5322990  65.9453735
  80.8716660  51.6268044  64.9340134  30.5552235  60.6698837  59.9979668
  30.4138794  61.2881470  60.7149048  30.6263199  59.8173714  60.4273834
  51.8466911  31.5868645  84.4776764  52.8030243  31.5508575  84.4966888
  51.6177444  32.2283249  85.1502380  83.5046082  46.8189583  72.2561340
  83.7510376  47.3537369  71.5014725  84.2209244  46.1908264  72.3487167
  86.0252762  13.5652695  52.1029968  85.2142944  13.6056576  52.6098633
  86.5770416  12.9475021  52.5827332   2.4431634  68.3250351  76.1692734
   3.3075874  67.9213486  76.2470016   2.1039085  68.0055084  75.3331833
  83.4399872  28.2962894  42.5765533  82.4973221  28.4604778  42.5510483
  83.5179138  27.3966923  42.8941765  81.9550323   6.7667723  53.5819969
  82.6793594   7.3337889  53.8466911  82.1860199   5.9052339  53.9293098
  77.3439178  61.2337456  21.3463230  77.6339798  60.8659821  20.5115509
  76.8067932  61.9875069  21.1022511  25.5064354  43.6565971  68.6953583
  25.0816097  44.4405556  68.3472748  24.7841606  43.0599327  68.8916855
  53.8368683  45.1198082   5.4868121  53.0792427  44.7383118   5.9303131
  54.3132820  44.3671951   5.1363316  30.4091988  31.9718571   3.3890231
  29.9171047  32.4311180   4.0695758  31.3259583  32.1665497   3.5836525
  37.7992821  55.1705551  34.7473412  38.1542397  54.3299599  34.4581413
  38.1813583  55.8110580  34.1473389   6.7403235  63.0059013  63.2019920
   6.1417170  62.8097725  62.4812737   7.1610308  62.1688576  63.3984489
  70.2060547   1.3827115   3.6692181  69.3090210   1.6761076   3.5096121
  70.3309250   0.6530014   3.0624533  72.5848083  42.5475502  39.8046722
  73.1750565  41.8391762  39.5476952  73.0315704  42.9792976  40.5328445
  19.7679310  67.9901581  80.1672287  19.3982582  68.6812820  79.6177597
  20.7096996  68.0297775  80.0006943  52.6963654  16.6078854  86.1277466
  53.6446877  16.6788044  86.0186996  52.5421867  16.8435478  87.0425873
   1.7029355  10.5375566  83.9249878   1.4631293  10.8995104  84.7780533
   2.6505003  10.6613970  83.8700638  17.8500271  65.4255753  37.2171783
  17.5755653  65.3399734  36.3041763  17.5788784  66.3089218  37.4669762
  38.5041122  52.8490143   5.6228242  38.4509277  52.1326714   4.9901700
  38.5425377  52.4139633   6.4745774  42.9287262  67.3283997  81.3740845
  42.4142685  67.9421463  80.8497925  43.8270531  67.6525040  81.3092957
  34.7571411  21.6280746  73.9714432  35.7037201  21.6513519  73.8311539
  34.5076714  20.7255917  73.7726364   8.7126722  32.9526596  36.5474701
   7.9933357  32.9435349  37.1788979   9.1086817  32.0844955  36.6229858
  67.7298050  13.4396019   6.6548715  66.8961182  13.6163721   6.2190361
  67.5053177  13.3721151   7.5829258  59.3475838  24.7888927  26.4468651
  60.0094261  24.2854462  25.9728050  59.1966820  25.5602837  25.9005890
  60.0115891  28.3283844   6.0850129  60.4671326  28.6306820   5.2993093
  60.6438560  27.7598896   6.5246553  33.2701111  29.9892502  68.5181351
  32.4324303  30.0404835  68.9784470  33.2738266  30.7534752  67.9417801
  23.1256790   2.5254042  24.1946945  22.4466686   2.2431474  23.5819092
  22.8374882   2.1888642  25.0431747  52.4593697  27.4554348  67.3625565
  52.9733963  28.1744709  66.9951401  53.1125298  26.8316422  67.6795654
  81.9492340  11.9670792  46.8004265  82.0260086  12.8969021  47.0143585
  81.0402298  11.8600330  46.5202637  82.2167130  41.2680092   6.3707294
  82.5807495  40.5585861   5.8411708  81.4147263  40.9015694   6.7432504
  21.6572132   0.7680755  52.2912254  22.2738953   1.4056634  52.6509705
  21.1707764   1.2545209  51.6256561  21.1582394  40.6647606  16.1003094
  20.9401417  39.7653542  15.8559122  20.3833447  40.9814262  16.5645237
  84.6693954  38.8473015  45.0981140  84.1416779  38.9392014  44.3048286
  84.4267502  39.6010857  45.6358528  82.7978287  62.3002815  11.6154861
  82.4647751  62.9735336  11.0221567  83.7294998  62.2356949  11.4056215
  39.8116417   0.1842548   9.4950008  39.2830925   0.9716142   9.3648634
  39.5365105  -0.1505459  10.3484907  63.6881905  46.0784035  59.5403976
  64.2435303  46.0558167  60.3197060  64.2942657  46.2481995  58.8192406
  29.5332718  18.8979492   3.1574109  30.1840515  19.2270870   2.5374243
  29.2259064  19.6782494   3.6188095  31.8052387  46.9742546  56.7000122
  32.1153755  46.0793839  56.8387718  30.9436226  46.9963989  57.1163788
   1.3752393  30.0679188  86.7658157   1.9495742  30.4246941  86.0882568
   0.5055636  30.0659389  86.3659439  21.9924507  47.9629669   5.9892678
  21.4287224  48.2654305   5.2772570  21.5562954  47.1792755   6.3236685
  70.6496811  47.2975426  53.6363792  70.3054428  46.4825401  53.2709923
  70.0500107  47.9736023  53.3208237  24.7417068  47.9528427  46.4796638
  24.9329319  48.5753479  47.1811981  25.1692982  47.1421547  46.7556763
  67.2805786   6.1086626   7.9443679  67.6564407   5.9033442   8.8004093
  67.8850937   5.7132735   7.3163013   0.1558360  50.2652512  28.6015759
   0.6266643  49.4550323  28.4063950   0.1158476  50.7267609  27.7639332
  52.8206749  42.6450691  54.2757339  52.4202423  42.9407158  55.0933418
  52.3912697  41.8107300  54.0867233   8.0475035  36.6592293  83.5310059
   7.8147678  36.0347023  82.8439560   8.8744888  36.3304214  83.8834381
  24.2800293   2.0445304  59.3826866  23.7965603   2.0428524  60.2088127
  25.1683102   1.7823833  59.6244812  34.5739555  54.2922707  50.5024490
  34.8949471  54.5574455  49.6405449  35.0051422  53.4545326  50.6712837
  73.7639847  58.4346848  42.2938805  74.3619690  58.6369247  43.0134239
  73.1995010  59.2049026  42.2279053  12.4419708  38.6285973  42.9385033
  12.1449337  38.5552483  42.0315208  11.7140837  39.0498886  43.3955879
   9.9104204  69.5470047   7.5741954  10.8609657  69.4710388   7.6574011
   9.7158785  70.4405136   7.8570967  55.9773407  20.7042713  30.2937870
  56.1105003  20.8698502  31.2271042  55.0402946  20.5261822  30.2134323
  28.1150970  61.1918716   8.8307390  27.9048481  60.4707947   8.2373838
  29.0677299  61.2718010   8.7824316  30.4126396  63.4543533  83.0577545
  30.3515453  64.2574081  83.5750656  30.5232677  63.7577362  82.1566772
  50.1172562  56.9829521  24.5620575  49.8365898  56.3129768  25.1854286
  49.7285652  56.7136307  23.7298222  73.7683334  54.5060616  16.3855724
  74.3024826  54.7779732  15.6392584  73.3436813  53.6990013  16.0947914
  72.4730453  28.8903408  47.4803658  71.8195038  29.0608101  48.1586380
  72.3978271  27.9522305  47.3056564  73.2372894  60.0528030  26.3624115
  73.2454376  59.0961380  26.3932915  74.0512924  60.3132935  26.7934284
  29.7863007  31.0994091  64.0862885  28.8780479  31.3881073  63.9970627
  29.8016987  30.2300377  63.6860504  82.8759384  37.9157867  56.5585213
  82.6178741  37.0583801  56.8968811  82.7951126  37.8325500  55.6083794
  54.3662186   7.6541224  53.7035446  53.4764786   7.8778582  53.4305305
  54.9268074   8.2445974  53.2002487  85.4414291  70.0780258  24.0144196
  85.0878754  70.2381134  24.8894043  85.5522385  70.9508743  23.6374779
   1.6738358  33.4558792  88.1023788   1.4280587  33.3267097  87.1863327
   0.9113938  33.1589088  88.5990906   0.9522444  27.8658237  26.1941929
   1.3198284  27.0417004  25.8749218   0.9836715  27.7886105  27.1477566
  63.6270523  70.8682022  45.0847359  63.4105377  69.9390106  45.0076027
  62.9333344  71.3167191  44.6011848  37.8560524  65.7823944  52.0992470
  37.2861137  65.0986176  52.4511681  37.7837029  66.5011826  52.7272110
  80.6277695  67.3598251  73.2357254  80.5250931  66.6779404  73.8995895
  81.3125305  67.0277252  72.6551743  76.0717850   4.2808366  83.9834366
  75.7990723   5.1742883  83.7746201  75.6956253   4.1112781  84.8471375
  17.7821140  52.9253883  23.4659920  16.9170208  53.3035164  23.3083000
  18.3893814  53.5313339  23.0413876  70.5739059  52.8969917  87.6210098
  70.8470917  52.3329468  86.8975067  71.3897400  53.2694778  87.9555359
  36.5134621  53.8737907  48.6217194  37.2391434  53.5746613  49.1695671
  36.9360123  54.3063316  47.8796997  38.2870293  63.5183105  58.3687248
  38.7320824  64.3462219  58.1878242  37.3917923  63.7717628  58.5935478
  50.5851707   8.4330330   9.1629648  50.7854691   8.2945089  10.0886660
  51.3350677   8.0624685   8.6975927  54.0586815  39.0132751  78.7810211
  54.6218414  38.5902481  79.4291992  53.2900200  39.2933578  79.2779541
  68.5438385   7.3056312  -0.0926432  67.6509323   7.4263282  -0.4157397
  68.5251770   7.6541085   0.7986745  70.0557632   8.0645714  18.9699268
  70.3641205   7.1777816  18.7835083  70.6020737   8.6282187  18.4221268
  81.8410416  49.4555702  11.5347080  81.9706421  48.7742043  12.1943884
  80.9025421  49.4326172  11.3478413  59.1056938  70.7879868  22.4792080
  58.3554459  71.0347672  21.9384098  58.7224350  70.5328293  23.3183975
   3.7549858  60.5122566   1.1785766   3.6104283  59.6121788   1.4704534
   2.9167533  60.9498291   1.3273299   8.4874172  47.1572952  60.2483025
   7.6836386  47.6222000  60.4807587   8.6441317  47.3923874  59.3337517
  26.8262768   9.0157013  71.0455856  25.8782425   8.9710588  70.9212036
  27.0930939   8.1065331  71.1814270  85.3863754  60.8117599  85.1353149
  86.0472107  60.5454483  85.7745438  84.7638931  61.3364296  85.6387634
  48.8875427   4.2945261  80.4871902  48.2540665   3.5979650  80.3147278
  48.9073715   4.3694077  81.4412537  44.3086166  64.0096359  37.5389061
  43.9003792  64.7018051  37.0188370  45.1189537  64.4012451  37.8648453
  78.2860489  17.2669430  76.0716705  78.9083099  17.2636070  75.3443375
  77.4827194  17.6291828  75.6979446  68.6637421  32.2501259  58.8990288
  68.9077835  33.1508484  58.6860199  69.3031769  31.9780159  59.5572929
  15.2661896  44.2831001   0.1787139  14.6502018  45.0149498   0.2131635
  15.6759329  44.2739944   1.0437338  59.5597992  67.3910751  37.4802551
  59.5145645  68.2199249  37.9569054  58.6496086  67.1898804  37.2627525
  12.9216871  42.1083069  89.1118240  13.4621172  42.6715050  89.6658783
  12.8188591  42.6009293  88.2975845  71.3990707  28.5382862  37.3001099
  71.4220734  29.4854813  37.1640167  72.1177063  28.2018700  36.7647438
   1.5119281  54.8652077  16.7055397   1.6662313  55.3497696  15.8945999
   1.2317770  55.5315018  17.3330746   2.3613646  30.6146317  66.6769104
   3.1511226  30.1628380  66.9742279   2.6823018  31.2893543  66.0785980
  84.0890045  15.7422438  24.0831108  83.2797623  15.8576498  24.5811462
  83.8131561  15.3103838  23.2746334  45.4979019  65.8973541  54.8132057
  45.0370636  66.0990524  55.6275635  44.8787956  66.1342163  54.1226730
  22.0590954   2.9464769  75.1470337  22.6075516   3.3857772  75.7969894
  22.0964432   2.0209467  75.3883438  54.2999420  48.6850624  63.7408905
  55.1210060  49.1263084  63.5232162  54.4600067  48.2905655  64.5982056
  39.9167671   6.0036693   3.5141151  40.4769173   5.7574902   4.2502265
  39.7817078   6.9453187   3.6203575  14.8920174  31.1490421  71.6714096
  15.7551041  30.8006172  71.4479980  14.3372488  30.9086361  70.9293442
  57.7169189  60.4031410  85.7538147  58.2490311  60.5317345  86.5390244
  56.9621124  59.8980293  86.0560684  27.6057911   1.3842329  10.7477140
  27.2297306   0.5256652  10.5536213  26.8491974   1.9658332  10.8221254
  66.3744125   6.6432004  81.2956772  65.6478271   6.3457131  80.7481384
  66.7269135   7.4036765  80.8334503   2.4430029  29.3944054  24.8873234
   1.7475522  28.8932209  25.3132267   2.7584605  29.9909801  25.5661564
  68.5084839  60.2479324  25.8135300  67.5946274  60.2522354  25.5287838
  68.6746216  59.3413315  26.0717907  13.6553564  61.5451813  47.5916710
  14.4072142  61.6091614  48.1806107  12.9151459  61.8546104  48.1137581
  38.3509178  33.6509895   5.3225756  38.1328430  33.8241005   6.2383857
  37.9006805  34.3405457   4.8346868  43.3713760  19.8286972  23.1217575
  43.7794838  20.4946098  22.5683689  43.7607040  19.0040607  22.8308468
  17.5246696   0.5219076  63.8947906  17.9704323   0.0755777  64.6147308
  17.6782360   1.4524751  64.0581741  39.6646729  23.9359417   1.0248358
  40.3008957  24.6510048   1.0130996  38.8214645  24.3630905   0.8739291
  46.7764320  13.7776642  42.7255363  47.2505302  13.7957163  43.5568810
  45.9083672  13.4439201  42.9520493   1.6588275  33.5203857   8.3768559
   1.2052292  34.3186302   8.1061459   1.6171284  33.5337601   9.3330536
  61.0604172  26.4012814  35.4223747  61.3037148  25.6697731  35.9897652
  61.8174438  26.9864960  35.4481812  32.7779350  46.6839371  76.3903732
  33.6948051  46.7359886  76.6603165  32.3510818  47.4058800  76.8516998
  71.6102753  57.9011307  33.0429535  70.6671753  57.8761368  32.8812180
  71.8215485  58.8338013  33.0843773  43.8374329  53.4490891   0.3155347
  44.4417572  53.6774368  -0.3907824  43.1079826  54.0604401   0.2136515
  37.6281738  61.1605835  67.3498993  38.0115623  62.0344429  67.4248428
  37.4242134  60.9104271  68.2510452  84.1330109  19.8378334   3.9108803
  84.9745865  19.3832130   3.8747489  84.2534103  20.5118389   4.5798001
  77.4558716  40.5744438  45.9998741  77.0439758  41.3569374  45.6334305
  77.7893372  40.8559494  46.8518028  65.1577148  32.1105003  10.7846069
  65.0763397  31.1901817  11.0348482  66.0902405  32.2278671  10.6033449
  29.2440453   4.5238104  43.8649940  29.6394367   5.3722887  44.0649452
  29.7269936   4.2085867  43.1010399  26.4284153  66.0023422  57.5990486
  26.0650177  65.8510284  56.7265358  27.3044186  66.3521423  57.4362907
  32.9885216  59.4431000   4.4096847  33.6414261  59.8533325   3.8425360
  33.3281364  58.5622406   4.5677366  21.2807999  44.7276955  39.5704346
  21.3671284  43.9482727  39.0215492  21.8933086  44.5819435  40.2914238
  15.4311905   7.4336877  80.4596100  14.8888617   6.7361746  80.8278351
  15.5697899   8.0391064  81.1879578   4.8814330  59.9159317  23.0414734
   4.5054345  59.3680153  23.7304192   5.6814041  60.2717896  23.4283104
  21.1856384  67.8154144  31.2554646  22.1202850  67.9989319  31.1606598
  21.0333805  67.8297501  32.2003708  24.9506569  51.5925789  66.0832443
  24.0663548  51.9392662  65.9647217  25.3712597  52.2090454  66.6826553
  33.3319130  30.4196911  14.9549990  32.6664810  29.9578075  15.4649935
  34.0442657  30.5746822  15.5752954  49.7727203  22.2267456  33.9756317
  49.3963203  23.1065273  33.9523926  49.5548973  21.8504448  33.1228790
  84.2027435  64.0877762  17.1796265  85.0752258  63.8270073  16.8846474
  83.6189880  63.8141479  16.4721088   1.5794345  48.5443535   2.4543152
   1.4860258  49.2738075   1.8416146   0.9290046  47.9042130   2.1655340
  63.5030785  35.3820229  36.9909477  64.3427963  35.0587273  36.6644669
  63.0676727  35.7410316  36.2177925  27.7438507  69.8716965   0.4402708
  27.3326702  69.2343903   1.0242198  27.1091843  70.5857010   0.3800275
   1.8183286  64.4362869  25.8288860   1.9587325  63.5155716  25.6079788
   2.3778014  64.5878372  26.5906296  44.6559029  43.5530853  70.0118561
  44.8985443  42.6469688  69.8213043  45.4236298  43.9193764  70.4507828
  20.0933304  11.7454138   4.5223150  20.7491665  12.2646732   4.0570407
  20.2338867  11.9539309   5.4458928  27.5059280  38.0834389  86.2625427
  27.7144775  38.9859695  86.5037384  26.5493793  38.0487251  86.2690048
  37.3055267  67.3684235  13.6997995  37.0877647  66.9427719  14.5290356
  38.1241264  67.8320770  13.8762913   7.3539886  61.5542679   1.0506531
   7.7896585  61.4790993   1.8996370   7.1727982  62.4894218   0.9563892
  74.5432358  57.4808998  31.7842922  73.8466721  57.3494034  32.4275131
  74.5876923  58.4302216  31.6700840  54.0565186  67.2185287  61.8932533
  53.6305046  66.6319199  61.2682495  54.2142868  66.6734543  62.6641197
  59.2388000  11.4030819  88.4167633  59.5967865  11.6289816  87.5582504
  58.6173477  10.6971092  88.2389069  65.5673904  47.7221909  27.7067661
  65.8102951  46.9040642  28.1402397  66.0586319  47.7130165  26.8852844
   2.5534115  31.3720036  63.3227768   2.6074100  31.4107857  62.3678894
   2.1852510  32.2183800  63.5764236  30.7352219  23.9624577   1.8232373
  30.3732147  23.9774075   2.7092171  31.6705456  24.1263103   1.9438747
  49.1905556  49.0562782  29.3935909  50.0216255  48.6420174  29.1613445
  49.3308792  49.9874496  29.2219429  33.6348228  65.0401840  77.3914948
  33.5866737  64.8684692  76.4510574  32.9840965  65.7255249  77.5434570
  13.7075739  58.1604080  87.3979263  14.1636057  58.7584877  87.9900131
  13.7335262  57.3145180  87.8451767  55.2452850  71.3409882  51.8592911
  55.5472908  72.2304153  52.0435562  55.4141121  71.2194672  50.9249687
  75.0181046  59.4488373  20.1194439  74.2642288  59.0646248  20.5669823
  75.0192413  60.3652611  20.3958454  54.5906563  12.3360777  65.8403931
  53.6454849  12.2799025  65.9808426  54.9598312  12.4066277  66.7207108
  45.4578400  39.4619255   0.5263406  45.2259865  39.5373573   1.4519678
  44.7104912  39.8374596   0.0608581  34.3209267  10.3189096  18.6795387
  34.1493301  10.3655586  17.7390022  35.1653404  10.7557058  18.7908993
  69.9088593  58.7664413   4.4824424  69.4118347  59.1850777   3.7796316
  70.1365814  59.4832191   5.0745592  74.2485352  44.7000313  14.1320133
  74.5842285  43.8491936  13.8498487  74.9442673  45.0619774  14.6808186
  27.5207615  21.2619171  69.2951813  27.8106632  21.7882805  68.5501099
  26.5845261  21.4468651  69.3692627   4.6381750  52.4269562  14.5898838
   4.9203777  52.5338402  13.6814957   3.7123756  52.6700249  14.5832548
  37.0774689   2.2375767  42.4908791  37.5032463   2.4496417  43.3215256
  36.5214729   2.9946368  42.3065948  37.0563927  32.8452301   0.7461769
  36.9874954  32.5873985   1.6654205  37.9953346  32.9592400   0.5991286
  48.1412125   7.3631272  27.0136509  48.6763000   8.0652428  26.6435890
  48.3841553   7.3392782  27.9392014  13.9963264   0.9248592  65.4634781
  13.0813360   0.6509140  65.5265503  14.4491234   0.4016740  66.1249008
  83.8689804  13.3297949  44.6155777  83.2372589  14.0452223  44.6884804
  84.3255463  13.4965210  43.7909698  38.6994896  58.3883781  41.1708527
  39.4184647  58.7281609  41.7036285  38.7726593  57.4371376  41.2484550
  16.5993156  41.0251846  34.4749069  15.6993217  41.2443619  34.2336578
  16.9163322  40.4845581  33.7514038  14.4533825  31.8087749   6.5026937
  14.6544361  30.9905491   6.0484715  15.2694311  32.3079605   6.4694114
  46.3863487  53.8434906  22.0123234  45.4556694  54.0610313  21.9599037
  46.5042725  53.5082932  22.9011250  17.2889519  42.5155754   9.9939270
  16.3384476  42.6233063   9.9597473  17.5882511  43.2131920  10.5770092
  60.6621513  10.3345575  33.1361237  60.6284256   9.3893948  33.2836456
  61.5878983  10.5588312  33.2306099  79.3912430   2.9986277  16.1534729
  78.9743195   3.5002661  15.4529238  78.6944885   2.4371417  16.4933300
   7.6626472  51.2460327  52.5454941   8.3497009  51.2712593  53.2114944
   7.1881657  52.0694962  52.6595535   4.7475262  10.6569195  80.3916321
   4.4183116  11.4914179  80.0577698   4.5089822  10.0189962  79.7190399
  54.5557480  25.6635685  42.4005737  55.3310394  26.1712914  42.6401062
  53.8281898  26.1275787  42.8148003  77.3559036  30.0362434   8.7951069
  76.5584259  30.5289974   8.6015825  77.3465729  29.9294434   9.7462845
  65.6217117  46.2095795  16.1392231  65.0001526  45.5902290  16.5217133
  66.4195404  45.6974792  16.0071106  48.0691643  62.5568771  18.8079300
  48.4869461  61.7202797  19.0123634  48.6244926  63.2116547  19.2311420
  61.1221809  24.9432316  75.7235107  62.0680618  24.8404503  75.8282547
  60.8013077  24.0560360  75.5617828  44.3402443   3.4097309  28.1767712
  44.2642174   3.7978716  29.0484352  44.6273079   2.5111065  28.3389397
  56.1457748   6.8752084  59.9530563  56.4557381   7.4737592  59.2734299
  56.0170212   6.0427256  59.4984932  79.2548218   7.4634829  19.7131634
  80.0857086   7.0496912  19.9469147  78.6751328   7.2696443  20.4497890
  80.1460495  52.6090126  45.9969482  80.9340057  52.1163330  45.7675476
  79.4237137  52.0177689  45.7850533  85.4063568   5.1165514  17.5809212
  84.5664520   5.1672845  17.1246033  86.0452194   5.4340315  16.9427299
  51.2923203   1.2235700  76.8245850  51.0917587   0.2876387  76.8182907
  51.0056190   1.5357391  75.9663467  75.4843445  15.9904499  40.6244659
  74.7892456  16.1405029  41.2652092  75.1582565  16.3917389  39.8189392
  64.3069077  23.4867687  43.7207909  63.6786728  23.3479538  44.4295120
  65.1570587  23.2842464  44.1112442  15.0399780  22.1743107  26.4009209
  15.4892082  21.8493519  25.6206474  15.3066015  23.0912971  26.4663506
  52.4327087  15.9116936  30.7912407  53.1596260  15.7833643  31.4006290
  51.6644173  16.0137291  31.3529797  41.3487434   7.8834686   7.4546032
  40.8213692   8.6566687   7.6552835  42.1900978   8.0505695   7.8793755
  44.0987587  44.8871193  33.1302338  43.4408836  45.5135345  33.4319534
  43.7295609  44.0303078  33.3442574  42.7864380  57.5686264  30.4612980
  43.5903168  58.0693016  30.3222466  42.4164810  57.4613571  29.5850258
  78.7950592  60.5380020  60.5574722  78.3331680  60.5424080  61.3958397
  78.1720123  60.9190750  59.9387436  33.5851593  69.7637939  60.0821648
  34.4579430  69.9769821  60.4123650  33.6795502  69.7771759  59.1297226
  57.2682037  29.5091896  17.1552753  56.5308266  29.7556419  17.7136402
  58.0016823  30.0290699  17.4838543  25.7573967  28.3761997  75.7903976
  25.8715172  29.3234692  75.7136536  26.1990833  28.0185623  75.0201797
  72.5950165  24.3434429  23.1057339  72.4832001  23.6063957  23.7061443
  71.7551041  24.8018932  23.1302605  39.9332085  29.9122524  73.1334457
  40.5004120  29.3368893  73.6467438  40.2716064  29.8475971  72.2403946
  77.2824173  32.9703674  43.2693138  77.0596695  33.8838768  43.4485321
  78.2301254  32.9768295  43.1350136  46.6275101  45.9177895  21.1892376
  46.0668831  45.4749756  20.5521736  47.0920181  46.5813065  20.6791325
  80.4418945  64.7875595   3.0125821  79.6049576  64.6177292   3.4449265
  80.4383087  65.7300797   2.8456030  52.4099541  39.2944031  25.5489311
  52.6916351  39.0742188  24.6610069  53.1736794  39.7135925  25.9454613
  72.0700226  44.9192009  71.9465103  71.7568436  45.6664963  71.4369049
  71.5880203  44.1706657  71.5949478  19.0332718  12.7895241  51.9584084
  18.2465057  12.6580124  52.4874992  19.5532913  11.9988022  52.1018333
  40.7962418  14.9605236  15.7758121  39.9820213  15.4552927  15.8679104
  40.5425835  14.0507555  15.9314108  66.8556137  70.7479858  27.8672924
  65.9950562  70.3304214  27.8311920  66.7165833  71.5384674  28.3888702
  36.9046211  47.3806076  48.6111031  36.1359940  46.8211517  48.7227058
  37.5391006  47.0450325  49.2443962  20.8232784  56.6843719  73.8546906
  20.1686783  56.2489014  73.3087082  21.5387535  56.8898125  73.2529221
  67.7187653  40.3009109  85.5079422  67.9962463  40.6345253  86.3611374
  67.6050415  39.3602829  85.6440201  69.0667801   1.3843920  47.3789444
  70.0042877   1.4394493  47.5641212  68.9949417   0.7076406  46.7058334
  15.9338531  37.6847954  34.2032967  16.1555023  38.4041252  33.6119690
  16.7056007  37.1186714  34.1916046  75.8697662   6.1444759  11.7699203
  76.0268021   7.0734863  11.9387732  76.6299133   5.8615918  11.2616062
  76.3996429  62.8693810  81.4619980  76.1725311  63.6821365  81.0102386
  77.2811127  63.0227013  81.8021851  64.4923706  60.1738815   2.8587174
  64.5012512  60.5114517   3.7543733  64.7353134  60.9249153   2.3172760
  21.8507252   3.8730078  13.6525602  21.6085167   4.7016106  13.2390575
  21.5179787   3.9454830  14.5471315  51.2477417  40.2120857  36.0409088
  50.8994942  39.4905319  35.5171547  50.9969749  39.9984856  36.9396439
  81.5150833  32.6176109  51.4125519  81.8494644  31.8134766  51.0153198
  82.2901077  33.0447807  51.7773628  17.2108135  63.6652031  43.7683983
  17.5141811  63.3763580  42.9077225  17.4778748  64.5828934  43.8209229
  78.6069183  20.2430153  51.6900444  77.8518906  20.0357533  51.1394005
  79.1787033  20.7640285  51.1262741  75.8613892  19.4569530  34.6825142
  76.4876022  20.0206928  35.1366920  76.2765045  18.5944748  34.6759071
  44.4813690  66.7112045  21.3533306  43.5827179  66.7896194  21.0331612
  44.9402122  67.4554901  20.9638004  56.6267662  58.2089157  64.9103851
  56.4810028  57.4081421  64.4066467  57.2062149  57.9410629  65.6236343
   3.3803377  37.3590889  49.7722054   4.2902217  37.5678101  49.5605927
   2.8961701  37.5591049  48.9710770  39.3593292   9.7062511  77.9704742
  38.6288872   9.2513466  77.5512543  39.1492004  10.6352491  77.8754044
  53.1954651  42.3917961  34.3885651  53.4348564  43.1889114  34.8613548
  53.8785858  41.7622185  34.6192245  21.9147778  25.7414436  75.8109360
  21.2696381  26.1468754  75.2315826  22.7583313  25.9319229  75.4006119
   8.8304920  33.5588036  40.9374008   8.2034979  33.6468201  41.6552887
   8.3451843  33.1022987  40.2501526  41.8794212  70.8128128  76.1421738
  41.8395500  69.9933167  76.6351852  41.6603012  70.5631714  75.2444534
  53.7910080  59.7074127  15.4194689  52.8509293  59.7842636  15.5824995
  53.8542328  59.1643181  14.6337938  11.3747759  50.5345612  58.5631714
  11.4329567  50.6506767  57.6148262  10.4954977  50.8386383  58.7882080
   3.4271505  71.1508636  74.2558289   2.5822685  70.7756500  74.0075836
   3.4385569  71.1037140  75.2117996  85.4379807  42.5301323  54.8361359
  86.2247009  42.5280495  55.3813896  85.7634964  42.3996964  53.9454880
  58.9419594  35.7660751  68.7949829  59.2007065  36.5872269  68.3766632
  59.1986389  35.8726234  69.7109528  46.3669930  13.7738132   6.7010169
  45.6204948  13.7163429   6.1046352  46.0865402  13.2973375   7.4823937
  60.5420265   7.4857249  87.3194504  61.0843086   6.7300677  87.0932999
  60.7271042   8.1272106  86.6335373  71.7823944  37.9201813  28.3884850
  72.3163681  37.3773880  28.9685555  71.9478149  38.8167877  28.6799755
   0.1911215  42.1680641  72.3457184   0.6690110  42.2369766  73.1722183
  -0.5049430  41.5355263  72.5235443   3.4765193  63.6599846  36.4732780
   3.6876824  63.1234703  37.2373428   2.5385442  63.8329849  36.5539284
  83.5544128  31.6508045  47.1763611  82.6690063  31.6889210  46.8146400
  83.6668930  30.7371159  47.4385681  35.9760094  68.1570206  83.5180893
  35.5532150  67.7056656  82.7875061  36.7348099  67.6129532  83.7288971
  65.8306046  69.3941803  52.4127541  66.1263885  68.5856476  52.8311043
  64.9541855  69.1887131  52.0873070  76.5912933  58.3175926  56.5583496
  77.2124481  57.8467140  56.0027618  76.5935287  57.8332634  57.3839722
  38.9282455  62.8809662  71.9089966  38.6785851  63.7452393  72.2360001
  38.1397781  62.3483963  72.0135040  61.2055779  61.9158745   8.6223869
  61.2802315  62.8064003   8.2794170  61.3840370  61.3532524   7.8688345
  72.6555862  63.8516922  39.4582939  73.0800858  63.0004730  39.3512573
  71.9782333  63.8682556  38.7821617  81.2701797  70.6931152  30.5558186
  81.2494049  69.7607346  30.7713661  80.7369003  70.7679443  29.7644653
  82.0492325  40.2802734  18.4126797  81.4388580  39.7143898  18.8853836
  81.4943695  40.9501228  18.0131054  39.9589958  45.1466904  46.5022697
  39.9144516  45.7810516  47.2176933  39.7915993  45.6628380  45.7137260
  84.8292618  35.6909027  26.1360340  85.2020721  35.2002831  25.4035454
  85.0480118  35.1703987  26.9089870  32.6546669  43.7936668  84.8987122
  31.8033276  44.1650467  85.1300888  32.7306137  43.9380569  83.9555206
  61.3981781  14.1302691  79.3179626  61.6113853  14.4733152  78.4501572
  61.0975494  13.2362566  79.1548843  63.1384811  51.2764397  82.8584061
  63.7864952  51.1035538  82.1754532  62.3534279  51.5451088  82.3811874
  55.6501198  54.7776909  10.7962732  55.4547920  53.8587646  10.9797306
  55.8658829  55.1518555  11.6504860  68.0650406  50.5609512  14.4306164
  68.8405685  50.2363167  14.8882170  68.2845078  50.4827766  13.5022020
   7.0167551  54.8138123  59.6784019   6.4487944  54.0980873  59.9636917
   6.5391769  55.2262039  58.9586220  55.6474991  15.4225483  26.3328400
  55.7568054  15.3979301  27.2834587  55.4981804  16.3466187  26.1327686
  79.8306427  42.3047333  30.4567661  80.3314209  42.1372490  29.6583958
  80.2592621  43.0629883  30.8537121  75.0163269  42.0598602  87.7843399
  74.4453735  41.6967888  87.1072617  74.6454926  42.9218102  87.9734421
  52.7862434  27.5183811  43.5022354  52.4946365  28.0055389  44.2728691
  53.0657120  28.1933937  42.8837776  20.7647915   6.5394926  12.9050999
  21.1528053   7.3724976  12.6371841  20.3105373   6.7391310  13.7236547
  31.4006844  15.5879650  87.5706635  31.9315948  14.8125963  87.7527847
  32.0177269  16.3179951  87.6211014   5.9504476   5.3299413  23.4675636
   6.8920708   5.2761645  23.3042049   5.6794953   6.1431251  23.0414772
  80.8534927  19.5496216  75.1231079  80.4757996  19.7123909  74.2587738
  80.5391159  20.2752819  75.6623840   1.0841699  21.3113079  67.8202209
   1.7180694  20.6153851  67.6467438   1.5477878  21.9195538  68.3958359
   6.2047796  34.6217041  12.1106548   5.8073816  35.2446785  12.7191057
   7.0684381  34.4418373  12.4821033  38.8977890  39.9688263  35.9051285
  38.8173218  40.8450928  36.2818451  38.2747993  39.4370461  36.4004326
  48.2601738  67.7794037  11.2450790  48.2543602  67.9286270  12.1905584
  48.6003723  68.5944595  10.8760529  32.4979820  61.9039726  26.3474083
  32.3568573  62.3845062  25.5316868  33.3806114  61.5432510  26.2632599
   5.7098241  60.4696388  64.8736877   6.5486040  60.5524635  64.4200134
   5.5551066  61.3355942  65.2510681  24.9280605  71.3655243  16.8488636
  24.9541092  72.3209610  16.9008560  25.6006660  71.1422501  16.2054520
  56.7180099  61.2363777  35.7702713  55.9179039  61.4406242  36.2543640
  56.4096222  60.9020424  34.9280434  47.0003433  18.2403698  14.8773947
  46.4525032  17.8051796  15.5306253  47.8963966  18.0163956  15.1287031
  73.7812119  32.0491257  54.4420166  74.5222321  31.6602459  53.9773750
  74.1179123  32.8802605  54.7767982  11.7263660  13.8904285  81.1877747
  10.9313564  13.3871469  81.0119934  12.0143518  14.1919775  80.3261719
   1.8143061   8.8864784  14.5051270   1.0760214   8.4638319  14.9439173
   1.6836134   8.6933870  13.5767593  46.1523514  35.7991104   2.2968473
  45.8167419  35.3548317   1.5182502  45.7690048  35.3187103   3.0306659
  78.9200974  15.1180334  54.3899612  77.9937134  14.9312506  54.2377586
  79.0176773  16.0436306  54.1664047  20.8198643   5.0943851  87.6219940
  20.9962025   4.2322564  87.9986496  21.6689758   5.3908353  87.2943344
  75.4194717  38.6760368  84.5201187  75.7661591  39.4512978  84.9617233
  76.0832825  38.0015640  84.6639175  52.6523666  12.3965731  31.8471088
  53.4886436  12.8257246  32.0279541  52.7610359  12.0182924  30.9745674
  60.2108421  32.0705299   4.1929259  61.1189308  31.9435863   4.4676867
  59.9040184  32.8117943   4.7150545   4.9281473  48.0685806  78.6514587
   5.6580625  47.5264854  78.9507675   4.9025750  47.9339981  77.7041092
  54.7591324  25.1895828  19.3855667  55.1655922  26.0540104  19.4471169
  55.1995621  24.6694202  20.0576420  53.8190460  49.3129730  34.6654968
  53.9622536  50.1248360  35.1519089  52.8690529  49.2611504  34.5603523
  43.2446938  14.6883907  59.5550156  42.8145370  15.3270283  60.1236458
  43.0027847  13.8386116  59.9232368  54.7156067  25.2948742   4.7743230
  55.1232796  24.8417263   5.5123553  54.4784088  24.5955334   4.1653147
  70.1037445  64.0450592  78.7491226  70.4158020  63.2838478  78.2598343
  69.2561493  64.2518692  78.3553543  59.1331291  14.6448593  29.4611950
  59.6006393  15.4797916  29.4846935  59.1883011  14.3141451  30.3577518
  29.7723751  52.3426247  49.4556923  29.3550034  52.5732384  50.2856636
  29.9029484  51.3958282  49.5082016  19.3622780  36.8182411  17.1377506
  20.0035172  37.2543831  17.6988430  18.7647533  36.3860321  17.7479897
  53.5432892   8.9140863  23.6409340  53.0212135   9.1846132  24.3962383
  54.2131157   8.3366671  24.0072060   5.5511866  40.4502182  48.0866547
   5.0143518  40.5389824  48.8741608   5.8094234  39.5285797  48.0754509
  83.2165375  56.1649055  31.6882076  82.8932419  57.0480957  31.8662262
  82.7328949  55.6057396  32.2961998  58.6989174  61.9275513  81.4936981
  58.7154083  62.8790855  81.5963898  59.3969269  61.7423210  80.8654404
  72.9670792  33.7782211   4.6280036  72.1963196  33.4037857   4.2014365
  73.1469803  33.1872292   5.3591628  52.5709457  70.6644592  38.2032318
  52.2553864  70.9676285  37.3519173  53.1446953  71.3665924  38.5099068
  67.2034225  36.7273483  10.4202890  67.5968170  36.5242920   9.5716171
  66.2786026  36.5039749  10.3151884  58.2579689  18.2991047   8.4830618
  58.3625565  19.1968575   8.1678905  57.8783989  18.3946152   9.3565807
  68.1252823  43.6273003   7.2352777  67.6099396  43.0006523   6.7273755
  68.8091583  43.0980721   7.6457300  78.3600311  63.9604416  66.3953171
  78.2354965  64.7120972  66.9747467  78.6618195  64.3412018  65.5705872
  26.1278400  42.8249969   9.9421854  25.3524151  43.2414665   9.5660238
  26.3102036  42.0877838   9.3595228  41.9999275  49.2153740  72.7554932
  42.3569145  50.1022530  72.7082672  41.0612793  49.3266563  72.6045303
  16.9401493  47.2800522  83.5950699  17.4694233  46.7480545  84.1892776
  16.2520332  46.6877594  83.2918854   1.0132942  53.6257019  33.2204704
   1.7870685  53.3120613  33.6885910   0.3127898  53.6014137  33.8723412
   2.7817307  26.1524429  15.5705366   2.7701254  27.0965252  15.7280331
   2.0190964  25.8211231  16.0447178   2.3223407  68.1509781  45.1967087
   2.9532695  67.5822678  45.6379890   1.6771473  67.5496750  44.8247032
  16.0303516  58.3395996  52.0627327  16.7246838  58.4791145  51.4187851
  16.3331299  58.8005486  52.8450890  81.7330627  32.7117615  56.5836983
  81.4288483  32.3637428  57.4218903  81.0927963  33.3865356  56.3579597
  85.3982620   4.9718318  22.7725735  85.1564713   5.2973857  21.9055214
  85.1666031   5.6838222  23.3689251  53.6518974  68.1697998  44.6808815
  53.9688072  67.5892715  43.9889374  54.3261757  68.1248016  45.3587875
  70.8767242  24.2917500  47.2419624  70.1826553  23.9837742  47.8247566
  71.2892456  23.4914780  46.9169693  66.8610153  62.7372093  28.7018871
  66.4483261  63.1891327  29.4378796  67.4335022  63.3951416  28.3074017
   7.8280034  62.5535202  29.5223618   7.5469141  62.8022308  28.6418152
   7.0933919  62.7965164  30.0858612   0.4118984  34.8316536  33.6346245
  -0.3384123  34.9841423  33.0601540   0.0247801  34.5666885  34.4689865
  13.8799963  49.6694107   8.3167067  13.9735518  48.7989960   7.9295859
  13.3511133  49.5268326   9.1016827  42.1266212  62.6112022  20.7890530
  43.0358429  62.3208160  20.8613567  41.6422653  62.0302010  21.3756275
   0.2251477  41.7386742  85.0348511   0.9139128  41.1063881  84.8298035
   0.4133348  42.0154305  85.9316330  47.5799904  50.6202927  11.2001505
  46.6789474  50.2972755  11.2040148  48.1140900  49.8385048  11.0595064
  71.9836502  10.1264791  54.8972054  72.6961746   9.9734755  55.5177917
  71.5912857   9.2633848  54.7654800   3.3597095  42.6436996   8.6266956
   3.5593727  42.9965973   9.4937773   2.4788947  42.2791901   8.7134695
   2.9302323  15.0449181   4.3488388   2.3378861  14.8322468   3.6276395
   3.1430643  15.9691343   4.2193828  19.7847939  26.0354996  81.3657455
  19.0854321  25.3837070  81.3178558  19.5360126  26.7012787  80.7245865
  83.6022644  58.3975258  27.3545036  82.7393951  58.7432251  27.1260586
  83.8489456  58.8739166  28.1472416  77.2341766  24.2357388  22.2386684
  76.6332321  24.7556133  21.7049828  77.9457932  24.8385620  22.4541702
   0.2508137  33.7797546  36.2513542   0.7456142  33.1129684  35.7751160
   0.8698314  34.1225128  36.8959961  41.9015198  53.7964821  52.9433632
  42.2080040  53.8397369  52.0375862  41.9602737  54.6980858  53.2594109
  85.9764404  21.4828072  63.3653145  86.5812378  22.0753708  62.9188690
  86.0409775  21.7258759  64.2888870  53.6328468  -0.2574168  12.8169746
  54.4868431  -0.0920682  12.4175005  53.2452507   0.6114830  12.9219322
  28.1152668  51.3883324  20.7931042  28.0949211  52.1915665  20.2728825
  29.0196762  51.0821762  20.7257137  11.9938650  38.5436974  82.0929565
  11.0952749  38.2200050  82.0297852  12.3862476  38.0255432  82.7956543
  26.4437141   3.8735459   8.3905096  25.9050159   3.0867651   8.3067799
  27.2574692   3.6561618   7.9357786  74.5855713  57.6977310  53.7853813
  75.3246155  57.5450974  53.1965256  73.9704361  58.2174683  53.2679710
  40.0024567  17.3380737   2.7514148  40.8082809  17.7394199   3.0766826
  40.2621536  16.4531441   2.4951134  49.1538467  11.1717014  18.0644894
  49.9732628  10.9039345  18.4805298  49.4146004  11.8381271  17.4287872
  58.1800346  57.8537102   0.5954859  58.0825691  58.7504044   0.2750622
  57.3958015  57.4016113   0.2843308  45.6573906  68.7103424  19.8841667
  44.8973312  69.1411438  19.4930782  46.3902359  69.2946014  19.6897316
  65.8785934  52.3488274  50.5037193  65.8250809  53.1925888  50.9525337
  65.9830017  52.5753059  49.5795784  81.3169785   5.7694860  76.7966080
  80.7090988   6.3665333  76.3604355  82.1692276   5.9709029  76.4101868
  41.4741211  50.9620056  63.7312851  40.5758934  51.2110443  63.5135727
  41.5088120  50.0201950  63.5638771  19.1614075  55.9768105  39.6515770
  19.3052883  56.8799324  39.9342461  18.3092651  55.9950523  39.2159767
  58.1356735  49.2419548   8.5789909  57.2260284  49.3938904   8.8352861
  58.5320892  50.1132011   8.5749588  78.6396103  24.7898598  55.9562073
  79.3654709  24.3632584  55.5008278  78.5796432  24.3308830  56.7940483
  59.2011757   1.5108693  75.7475052  58.6158943   1.5156924  76.5049057
  58.6635857   1.8402761  75.0272903  59.1429634   0.8394806   9.8443356
  59.9625664   1.2672609   9.5963736  58.5306473   1.0721279   9.1463547
  72.0068893  55.2593651   5.7504163  71.8786545  54.3321190   5.9504213
  71.1619415  55.6652641   5.9441986  58.8567200  29.6693783  70.0199661
  58.1577454  29.0454216  69.8241348  59.3190231  29.2851391  70.7648544
  40.7717285  65.8681488  16.9737663  40.6013527  65.9560318  17.9115734
  41.7224045  65.7761841  16.9106331  12.9125443  62.0184975  88.3367233
  12.5880709  62.8110123  88.7643585  12.2395000  61.3602600  88.5098190
  76.6701660  10.7623281  53.2162628  76.2617493   9.9103975  53.0625038
  77.4552002  10.7539196  52.6686516  53.6298256  26.9665184  30.0303707
  54.2161598  26.2269840  29.8705845  52.9061356  26.8351059  29.4178066
  75.5703964  35.5883942  65.8911896  75.2280426  36.1115074  66.6160202
  75.6959915  36.2171326  65.1804504  56.4319916  22.8504848  66.2963409
  56.3522797  23.7117195  65.8862762  55.7656670  22.8498077  66.9835358
  49.1411362  28.3391590  51.3558388  48.6741104  27.9975605  50.5933266
  48.4649506  28.4389439  52.0259514   1.5070273  58.9943466  68.0366516
   1.1396129  58.6109352  67.2402649   1.9327521  59.7989731  67.7407455
  78.7914352   8.5010777  17.3533859  78.8935852   8.0092211  16.5386009
  79.0775604   7.8948121  18.0366173  42.6694946   3.3546777  70.0488815
  41.9229050   2.7558386  70.0639496  42.4357643   4.0124440  69.3939438
  61.5884552  10.3992605  38.6296654  62.2946053   9.7705917  38.4801369
  62.0296593  11.1798048  38.9648056   1.5571423  63.2439232  84.4226227
   1.6314399  62.7160149  85.2176208   1.6265833  62.6112785  83.7076569
  33.4442711  69.1880569  27.5634155  33.2993126  69.4583206  26.6566772
  33.9671288  68.3892365  27.4945698  29.0985374  57.3813477  75.7745361
  28.6930542  56.6094627  75.3795547  28.9256458  57.2897224  76.7115250
  54.7327423  41.7439270  23.3579559  54.8442039  42.1380501  22.4928112
  54.4959145  42.4768105  23.9263096  42.1029701  55.2588577  80.3424530
  41.1551437  55.1457253  80.2713470  42.3990707  55.3722382  79.4392929
   8.5045080  50.1694412  56.6087494   8.5969687  50.4694519  55.7044945
   9.0031853  49.3530998  56.6424332  81.4946899   0.7585782   3.1921272
  82.0217590  -0.0395733   3.1549478  82.0659103   1.4036081   3.6091099
  42.0465584  29.8196144  65.3852310  42.9591713  30.0727177  65.2462692
  42.0812073  28.8764172  65.5446472  71.7955399  12.0494881  15.7346745
  72.4073563  12.4835415  15.1401081  71.3624573  11.3897552  15.1929903
  87.0174866   5.6868510  39.0315056  87.0780411   5.6585274  38.0766449
  86.1886673   6.1328411  39.2058144  65.7463455  42.2882652  15.5028276
  65.6920624  41.4030190  15.1427908  64.9908829  42.7443695  15.1320429
  62.9291420  40.6658707  54.3502045  63.2342148  40.0816002  53.6560936
  63.0284805  40.1554222  55.1538277   7.4544067  41.3736992  85.2060471
   6.8361564  40.6478539  85.2906036   7.4902458  41.5494995  84.2658157
  26.4104939  41.6390915  63.3985863  27.1659260  41.1091232  63.6529312
  26.2574100  42.2135201  64.1488037  19.1613750  58.1519432  20.7557220
  20.0996037  58.1620522  20.9450874  18.8199139  58.9306831  21.1952667
  67.2983322  27.2272911  48.6201057  66.6298523  27.6539879  48.0841064
  66.8759689  26.4300804  48.9399452  46.7475090  43.0782776   4.0817118
  46.7619858  43.2105522   3.1338060  45.8992424  42.6694489   4.2535667
  59.5656204  51.6909485  28.6620846  59.3347321  50.7932587  28.4231777
  59.5348663  52.1740189  27.8362961  47.8694992   5.0618181  24.2899742
  48.6460304   4.5641694  24.0339031  47.7276611   5.6731081  23.5671749
  79.4649429  29.3405819  20.8175354  79.3225708  28.8476353  20.0094719
  78.7667542  29.0474682  21.4030704  37.7404366  25.5088825  83.3160248
  38.1864166  24.7584267  83.7086411  36.8097420  25.3347397  83.4564209
  41.0062141  30.3674068  17.9917278  40.7092628  29.7220898  17.3501511
  41.3591881  29.8445301  18.7116165  81.5075455  62.0236549  51.2341232
  81.3865509  61.6054192  52.0865707  81.2162170  61.3669243  50.6016159
   2.4291823  45.7297592  16.4772816   1.8870090  46.1207008  17.1624413
   3.2796750  46.1588783  16.5708256  66.3728256  56.3846474  77.2585907
  66.6463699  55.4676056  77.2375946  67.1899567  56.8765373  77.3396530
  55.5574493  51.6916771  29.6500835  55.4855003  52.0414467  28.7619877
  54.8472328  51.0531578  29.7142925  37.4918556  71.3240051  43.1728935
  37.1984215  71.2725601  44.0825539  37.2530746  72.2079315  42.8938217
  83.2361221  53.0606689  45.6632118  83.5646362  53.9553642  45.7517128
  83.2149582  52.9056015  44.7188950  49.7080841   8.7825794  73.9019623
  50.2598991   8.7295170  73.1216278  49.9795837   9.5931597  74.3326340
  86.8054823  71.6231515  89.1667376  90.0000000  90.0000000  90.0000000
